/*--------------------------------*- C++ -*----------------------------------*\
| =========                 |                                                 |
| \\      /  F ield         | OpenFOAM: The Open Source CFD Toolbox           |
|  \\    /   O peration     | Version:  v2012                                 |
|   \\  /    A nd           | Website:  www.openfoam.com                      |
|    \\/     M anipulation  |                                                 |
\*---------------------------------------------------------------------------*/
FoamFile
{
    version     2.0;
    format      ascii;
    class       volScalarField;
    location    "0";
    object      ph_rgh;
}
// * * * * * * * * * * * * * * * * * * * * * * * * * * * * * * * * * * * * * //

dimensions      [1 -1 -2 0 0 0 0];


internalField   nonuniform List<scalar> 
51200
(
-40192
-40192
-40192
-40191.9
-40191.9
-40191.8
-40191.7
-40191.6
-40191.5
-40191.4
-40191.3
-40191.1
-40191
-40190.8
-40190.6
-40190.5
-40190.3
-40190.1
-40189.9
-40189.6
-40189.4
-40189.2
-40189
-40188.7
-40188.5
-40188.2
-40187.9
-40187.7
-40187.4
-40187.1
-40186.9
-40186.6
-40186.3
-40186
-40185.8
-40185.5
-40185.2
-40184.9
-40184.6
-40184.3
-40184.1
-40183.8
-40183.5
-40183.2
-40183
-40182.7
-40182.4
-40182.2
-40181.9
-40181.6
-40181.4
-40181.1
-40180.9
-40180.6
-40180.4
-40180.1
-40179.9
-40179.7
-40179.4
-40179.2
-40179
-40178.7
-40178.5
-40178.3
-40178.1
-40177.9
-40177.7
-40177.5
-40177.3
-40177.1
-40176.9
-40176.7
-40176.5
-40176.4
-40176.2
-40176
-40175.9
-40175.7
-40175.5
-40175.4
-40175.2
-40175.1
-40174.9
-40174.8
-40174.6
-40174.5
-40174.4
-40174.2
-40174.1
-40174
-40173.8
-40173.7
-40173.6
-40173.5
-40173.4
-40173.3
-40173.2
-40173
-40172.9
-40172.8
-40172.7
-40172.6
-40172.6
-40172.5
-40172.4
-40172.3
-40172.2
-40172.1
-40172
-40172
-40171.9
-40171.8
-40171.7
-40171.7
-40171.6
-40171.5
-40171.5
-40171.4
-40171.3
-40171.3
-40171.2
-40171.2
-40171.1
-40171.1
-40171
-40171
-40170.9
-40170.9
-40170.8
-40170.8
-40170.7
-40170.7
-40170.7
-40170.6
-40170.6
-40170.6
-40170.5
-40170.5
-40170.5
-40170.4
-40170.4
-40170.4
-40170.4
-40170.3
-40170.3
-40170.3
-40170.3
-40170.3
-40170.3
-40170.2
-40170.2
-40170.2
-40170.2
-40170.2
-40170.2
-40170.2
-40170.2
-40170.2
-40170.2
-40170.2
-40192.3
-40192.3
-40192.2
-40192.2
-40192.1
-40192.1
-40192
-40191.9
-40191.8
-40191.7
-40191.6
-40191.4
-40191.3
-40191.1
-40190.9
-40190.7
-40190.6
-40190.3
-40190.1
-40189.9
-40189.7
-40189.5
-40189.2
-40189
-40188.7
-40188.5
-40188.2
-40187.9
-40187.7
-40187.4
-40187.1
-40186.9
-40186.6
-40186.3
-40186
-40185.7
-40185.5
-40185.2
-40184.9
-40184.6
-40184.3
-40184.1
-40183.8
-40183.5
-40183.2
-40183
-40182.7
-40182.4
-40182.2
-40181.9
-40181.6
-40181.4
-40181.1
-40180.9
-40180.6
-40180.4
-40180.2
-40179.9
-40179.7
-40179.5
-40179.2
-40179
-40178.8
-40178.6
-40178.4
-40178.2
-40178
-40177.8
-40177.6
-40177.4
-40177.2
-40177
-40176.8
-40176.6
-40176.5
-40176.3
-40176.1
-40176
-40175.8
-40175.6
-40175.5
-40175.3
-40175.2
-40175
-40174.9
-40174.8
-40174.6
-40174.5
-40174.4
-40174.2
-40174.1
-40174
-40173.9
-40173.7
-40173.6
-40173.5
-40173.4
-40173.3
-40173.2
-40173.1
-40173
-40172.9
-40172.8
-40172.7
-40172.6
-40172.6
-40172.5
-40172.4
-40172.3
-40172.2
-40172.2
-40172.1
-40172
-40171.9
-40171.9
-40171.8
-40171.7
-40171.7
-40171.6
-40171.6
-40171.5
-40171.4
-40171.4
-40171.3
-40171.3
-40171.2
-40171.2
-40171.1
-40171.1
-40171.1
-40171
-40171
-40170.9
-40170.9
-40170.9
-40170.8
-40170.8
-40170.8
-40170.7
-40170.7
-40170.7
-40170.7
-40170.6
-40170.6
-40170.6
-40170.6
-40170.6
-40170.5
-40170.5
-40170.5
-40170.5
-40170.5
-40170.5
-40170.5
-40170.5
-40170.5
-40170.4
-40170.4
-40170.4
-40170.4
-40193.1
-40193.1
-40193.1
-40193.1
-40193
-40192.9
-40192.9
-40192.8
-40192.7
-40192.5
-40192.4
-40192.3
-40192.1
-40191.9
-40191.8
-40191.6
-40191.4
-40191.2
-40191
-40190.7
-40190.5
-40190.3
-40190
-40189.8
-40189.5
-40189.3
-40189
-40188.8
-40188.5
-40188.2
-40187.9
-40187.7
-40187.4
-40187.1
-40186.8
-40186.5
-40186.3
-40186
-40185.7
-40185.4
-40185.1
-40184.9
-40184.6
-40184.3
-40184
-40183.8
-40183.5
-40183.2
-40183
-40182.7
-40182.4
-40182.2
-40181.9
-40181.7
-40181.4
-40181.2
-40180.9
-40180.7
-40180.5
-40180.3
-40180
-40179.8
-40179.6
-40179.4
-40179.2
-40179
-40178.8
-40178.6
-40178.4
-40178.2
-40178
-40177.8
-40177.6
-40177.4
-40177.3
-40177.1
-40176.9
-40176.8
-40176.6
-40176.4
-40176.3
-40176.1
-40176
-40175.8
-40175.7
-40175.6
-40175.4
-40175.3
-40175.2
-40175
-40174.9
-40174.8
-40174.7
-40174.5
-40174.4
-40174.3
-40174.2
-40174.1
-40174
-40173.9
-40173.8
-40173.7
-40173.6
-40173.5
-40173.4
-40173.4
-40173.3
-40173.2
-40173.1
-40173
-40173
-40172.9
-40172.8
-40172.7
-40172.7
-40172.6
-40172.5
-40172.5
-40172.4
-40172.4
-40172.3
-40172.2
-40172.2
-40172.1
-40172.1
-40172
-40172
-40171.9
-40171.9
-40171.9
-40171.8
-40171.8
-40171.7
-40171.7
-40171.7
-40171.6
-40171.6
-40171.6
-40171.5
-40171.5
-40171.5
-40171.5
-40171.4
-40171.4
-40171.4
-40171.4
-40171.4
-40171.3
-40171.3
-40171.3
-40171.3
-40171.3
-40171.3
-40171.3
-40171.3
-40171.3
-40171.2
-40171.2
-40171.2
-40171.2
-40194.6
-40194.6
-40194.5
-40194.5
-40194.4
-40194.4
-40194.3
-40194.2
-40194.1
-40194
-40193.8
-40193.7
-40193.5
-40193.4
-40193.2
-40193
-40192.8
-40192.6
-40192.3
-40192.1
-40191.9
-40191.6
-40191.4
-40191.2
-40190.9
-40190.6
-40190.4
-40190.1
-40189.8
-40189.6
-40189.3
-40189
-40188.7
-40188.5
-40188.2
-40187.9
-40187.6
-40187.3
-40187
-40186.8
-40186.5
-40186.2
-40185.9
-40185.6
-40185.4
-40185.1
-40184.8
-40184.6
-40184.3
-40184
-40183.8
-40183.5
-40183.3
-40183
-40182.8
-40182.5
-40182.3
-40182
-40181.8
-40181.6
-40181.4
-40181.1
-40180.9
-40180.7
-40180.5
-40180.3
-40180.1
-40179.9
-40179.7
-40179.5
-40179.3
-40179.1
-40178.9
-40178.8
-40178.6
-40178.4
-40178.2
-40178.1
-40177.9
-40177.8
-40177.6
-40177.5
-40177.3
-40177.2
-40177
-40176.9
-40176.7
-40176.6
-40176.5
-40176.4
-40176.2
-40176.1
-40176
-40175.9
-40175.8
-40175.7
-40175.5
-40175.4
-40175.3
-40175.2
-40175.1
-40175
-40175
-40174.9
-40174.8
-40174.7
-40174.6
-40174.5
-40174.4
-40174.4
-40174.3
-40174.2
-40174.1
-40174.1
-40174
-40173.9
-40173.9
-40173.8
-40173.7
-40173.7
-40173.6
-40173.6
-40173.5
-40173.5
-40173.4
-40173.4
-40173.3
-40173.3
-40173.2
-40173.2
-40173.1
-40173.1
-40173.1
-40173
-40173
-40173
-40172.9
-40172.9
-40172.9
-40172.8
-40172.8
-40172.8
-40172.8
-40172.8
-40172.7
-40172.7
-40172.7
-40172.7
-40172.7
-40172.6
-40172.6
-40172.6
-40172.6
-40172.6
-40172.6
-40172.6
-40172.6
-40172.6
-40172.6
-40172.6
-40196.6
-40196.6
-40196.5
-40196.5
-40196.4
-40196.4
-40196.3
-40196.2
-40196.1
-40196
-40195.8
-40195.7
-40195.5
-40195.4
-40195.2
-40195
-40194.8
-40194.6
-40194.3
-40194.1
-40193.8
-40193.6
-40193.3
-40193
-40192.8
-40192.5
-40192.3
-40192
-40191.7
-40191.4
-40191.2
-40190.9
-40190.6
-40190.3
-40190
-40189.8
-40189.5
-40189.2
-40188.9
-40188.6
-40188.3
-40188.1
-40187.8
-40187.5
-40187.2
-40187
-40186.7
-40186.4
-40186.1
-40185.9
-40185.6
-40185.4
-40185.1
-40184.9
-40184.6
-40184.4
-40184.1
-40183.9
-40183.7
-40183.4
-40183.2
-40183
-40182.8
-40182.6
-40182.3
-40182.1
-40181.9
-40181.7
-40181.5
-40181.4
-40181.2
-40181
-40180.8
-40180.6
-40180.4
-40180.3
-40180.1
-40179.9
-40179.8
-40179.6
-40179.5
-40179.3
-40179.2
-40179
-40178.9
-40178.7
-40178.6
-40178.5
-40178.3
-40178.2
-40178.1
-40178
-40177.9
-40177.7
-40177.6
-40177.5
-40177.4
-40177.3
-40177.2
-40177.1
-40177
-40176.9
-40176.8
-40176.7
-40176.6
-40176.5
-40176.5
-40176.4
-40176.3
-40176.2
-40176.1
-40176.1
-40176
-40175.9
-40175.9
-40175.8
-40175.7
-40175.7
-40175.6
-40175.6
-40175.5
-40175.4
-40175.4
-40175.3
-40175.3
-40175.2
-40175.2
-40175.1
-40175.1
-40175.1
-40175
-40175
-40174.9
-40174.9
-40174.9
-40174.8
-40174.8
-40174.8
-40174.7
-40174.7
-40174.7
-40174.7
-40174.6
-40174.6
-40174.6
-40174.6
-40174.6
-40174.5
-40174.5
-40174.5
-40174.5
-40174.5
-40174.5
-40174.5
-40174.5
-40174.5
-40174.5
-40174.4
-40174.4
-40174.4
-40199.1
-40199.1
-40199.1
-40199.1
-40199
-40198.9
-40198.9
-40198.8
-40198.7
-40198.5
-40198.4
-40198.2
-40198.1
-40197.9
-40197.7
-40197.5
-40197.3
-40197.1
-40196.9
-40196.6
-40196.4
-40196.1
-40195.8
-40195.5
-40195.2
-40195
-40194.7
-40194.4
-40194.1
-40193.9
-40193.6
-40193.3
-40193
-40192.7
-40192.4
-40192.2
-40191.9
-40191.6
-40191.3
-40191
-40190.7
-40190.5
-40190.2
-40189.9
-40189.6
-40189.3
-40189.1
-40188.8
-40188.5
-40188.3
-40188
-40187.8
-40187.5
-40187.3
-40187
-40186.8
-40186.5
-40186.3
-40186.1
-40185.8
-40185.6
-40185.4
-40185.2
-40184.9
-40184.7
-40184.5
-40184.3
-40184.1
-40183.9
-40183.7
-40183.5
-40183.4
-40183.2
-40183
-40182.8
-40182.7
-40182.5
-40182.3
-40182.2
-40182
-40181.9
-40181.7
-40181.6
-40181.4
-40181.3
-40181.1
-40181
-40180.9
-40180.7
-40180.6
-40180.5
-40180.4
-40180.2
-40180.1
-40180
-40179.9
-40179.8
-40179.7
-40179.6
-40179.5
-40179.4
-40179.3
-40179.2
-40179.1
-40179
-40178.9
-40178.9
-40178.8
-40178.7
-40178.6
-40178.5
-40178.5
-40178.4
-40178.3
-40178.3
-40178.2
-40178.1
-40178.1
-40178
-40177.9
-40177.9
-40177.8
-40177.8
-40177.7
-40177.7
-40177.6
-40177.6
-40177.5
-40177.5
-40177.5
-40177.4
-40177.4
-40177.3
-40177.3
-40177.3
-40177.2
-40177.2
-40177.2
-40177.1
-40177.1
-40177.1
-40177.1
-40177
-40177
-40177
-40177
-40177
-40176.9
-40176.9
-40176.9
-40176.9
-40176.9
-40176.9
-40176.9
-40176.9
-40176.9
-40176.8
-40176.8
-40176.8
-40176.8
-40202.3
-40202.3
-40202.2
-40202.2
-40202.1
-40202.1
-40202
-40201.9
-40201.8
-40201.6
-40201.5
-40201.4
-40201.2
-40201
-40200.8
-40200.6
-40200.4
-40200.2
-40200
-40199.7
-40199.5
-40199.2
-40198.9
-40198.6
-40198.3
-40198
-40197.7
-40197.4
-40197.1
-40196.8
-40196.5
-40196.2
-40196
-40195.7
-40195.4
-40195.1
-40194.8
-40194.5
-40194.2
-40193.9
-40193.7
-40193.4
-40193.1
-40192.8
-40192.5
-40192.3
-40192
-40191.7
-40191.5
-40191.2
-40190.9
-40190.7
-40190.4
-40190.2
-40189.9
-40189.7
-40189.4
-40189.2
-40189
-40188.7
-40188.5
-40188.3
-40188.1
-40187.9
-40187.6
-40187.4
-40187.2
-40187
-40186.8
-40186.6
-40186.5
-40186.3
-40186.1
-40185.9
-40185.7
-40185.6
-40185.4
-40185.2
-40185.1
-40184.9
-40184.8
-40184.6
-40184.5
-40184.3
-40184.2
-40184
-40183.9
-40183.8
-40183.7
-40183.5
-40183.4
-40183.3
-40183.2
-40183
-40182.9
-40182.8
-40182.7
-40182.6
-40182.5
-40182.4
-40182.3
-40182.2
-40182.1
-40182
-40181.9
-40181.9
-40181.8
-40181.7
-40181.6
-40181.5
-40181.5
-40181.4
-40181.3
-40181.2
-40181.2
-40181.1
-40181.1
-40181
-40180.9
-40180.9
-40180.8
-40180.8
-40180.7
-40180.7
-40180.6
-40180.6
-40180.5
-40180.5
-40180.4
-40180.4
-40180.3
-40180.3
-40180.3
-40180.2
-40180.2
-40180.2
-40180.1
-40180.1
-40180.1
-40180
-40180
-40180
-40180
-40179.9
-40179.9
-40179.9
-40179.9
-40179.9
-40179.8
-40179.8
-40179.8
-40179.8
-40179.8
-40179.8
-40179.8
-40179.8
-40179.8
-40179.8
-40179.8
-40179.8
-40206
-40205.9
-40205.9
-40205.9
-40205.8
-40205.7
-40205.7
-40205.6
-40205.5
-40205.3
-40205.2
-40205
-40204.9
-40204.7
-40204.5
-40204.3
-40204.1
-40203.9
-40203.6
-40203.4
-40203.1
-40202.8
-40202.6
-40202.3
-40202
-40201.6
-40201.3
-40201
-40200.6
-40200.3
-40200
-40199.7
-40199.4
-40199.1
-40198.8
-40198.6
-40198.3
-40198
-40197.7
-40197.4
-40197.1
-40196.8
-40196.5
-40196.3
-40196
-40195.7
-40195.4
-40195.2
-40194.9
-40194.6
-40194.4
-40194.1
-40193.8
-40193.6
-40193.4
-40193.1
-40192.9
-40192.6
-40192.4
-40192.2
-40191.9
-40191.7
-40191.5
-40191.3
-40191.1
-40190.9
-40190.7
-40190.5
-40190.3
-40190.1
-40189.9
-40189.7
-40189.5
-40189.3
-40189.2
-40189
-40188.8
-40188.7
-40188.5
-40188.4
-40188.2
-40188.1
-40187.9
-40187.8
-40187.6
-40187.5
-40187.3
-40187.2
-40187.1
-40187
-40186.8
-40186.7
-40186.6
-40186.5
-40186.4
-40186.3
-40186.2
-40186.1
-40186
-40185.9
-40185.8
-40185.7
-40185.6
-40185.5
-40185.4
-40185.3
-40185.2
-40185.1
-40185.1
-40185
-40184.9
-40184.8
-40184.8
-40184.7
-40184.6
-40184.6
-40184.5
-40184.4
-40184.4
-40184.3
-40184.3
-40184.2
-40184.2
-40184.1
-40184
-40184
-40184
-40183.9
-40183.9
-40183.8
-40183.8
-40183.7
-40183.7
-40183.7
-40183.6
-40183.6
-40183.6
-40183.5
-40183.5
-40183.5
-40183.5
-40183.4
-40183.4
-40183.4
-40183.4
-40183.3
-40183.3
-40183.3
-40183.3
-40183.3
-40183.3
-40183.3
-40183.2
-40183.2
-40183.2
-40183.2
-40183.2
-40183.2
-40183.2
-40183.2
-40210.2
-40210.2
-40210.2
-40210.1
-40210.1
-40210
-40209.9
-40209.8
-40209.7
-40209.6
-40209.4
-40209.3
-40209.1
-40208.9
-40208.7
-40208.5
-40208.3
-40208.1
-40207.8
-40207.6
-40207.3
-40207
-40206.7
-40206.4
-40206.1
-40205.8
-40205.5
-40205.2
-40204.8
-40204.5
-40204.1
-40203.7
-40203.4
-40203.1
-40202.8
-40202.5
-40202.3
-40202
-40201.7
-40201.4
-40201.1
-40200.8
-40200.5
-40200.2
-40200
-40199.7
-40199.4
-40199.1
-40198.9
-40198.6
-40198.3
-40198.1
-40197.8
-40197.6
-40197.3
-40197.1
-40196.8
-40196.6
-40196.4
-40196.1
-40195.9
-40195.7
-40195.5
-40195.2
-40195
-40194.8
-40194.6
-40194.4
-40194.2
-40194
-40193.8
-40193.7
-40193.5
-40193.3
-40193.1
-40193
-40192.8
-40192.6
-40192.5
-40192.3
-40192.2
-40192
-40191.9
-40191.7
-40191.6
-40191.4
-40191.3
-40191.2
-40191.1
-40190.9
-40190.8
-40190.7
-40190.6
-40190.5
-40190.3
-40190.2
-40190.1
-40190
-40189.9
-40189.8
-40189.7
-40189.6
-40189.5
-40189.4
-40189.4
-40189.3
-40189.2
-40189.1
-40189
-40189
-40188.9
-40188.8
-40188.7
-40188.7
-40188.6
-40188.5
-40188.5
-40188.4
-40188.3
-40188.3
-40188.2
-40188.2
-40188.1
-40188.1
-40188
-40188
-40187.9
-40187.9
-40187.8
-40187.8
-40187.8
-40187.7
-40187.7
-40187.6
-40187.6
-40187.6
-40187.5
-40187.5
-40187.5
-40187.5
-40187.4
-40187.4
-40187.4
-40187.4
-40187.3
-40187.3
-40187.3
-40187.3
-40187.3
-40187.3
-40187.3
-40187.2
-40187.2
-40187.2
-40187.2
-40187.2
-40187.2
-40187.2
-40187.2
-40187.2
-40215
-40215
-40215
-40214.9
-40214.9
-40214.8
-40214.7
-40214.6
-40214.5
-40214.4
-40214.2
-40214.1
-40213.9
-40213.7
-40213.5
-40213.3
-40213.1
-40212.8
-40212.6
-40212.3
-40212.1
-40211.8
-40211.5
-40211.2
-40210.9
-40210.5
-40210.2
-40209.9
-40209.5
-40209.2
-40208.8
-40208.4
-40208
-40207.7
-40207.4
-40207.1
-40206.8
-40206.5
-40206.2
-40205.9
-40205.6
-40205.3
-40205
-40204.7
-40204.4
-40204.2
-40203.9
-40203.6
-40203.3
-40203.1
-40202.8
-40202.5
-40202.3
-40202
-40201.8
-40201.5
-40201.3
-40201.1
-40200.8
-40200.6
-40200.4
-40200.2
-40199.9
-40199.7
-40199.5
-40199.3
-40199.1
-40198.9
-40198.7
-40198.5
-40198.3
-40198.1
-40198
-40197.8
-40197.6
-40197.4
-40197.3
-40197.1
-40197
-40196.8
-40196.6
-40196.5
-40196.3
-40196.2
-40196.1
-40195.9
-40195.8
-40195.7
-40195.5
-40195.4
-40195.3
-40195.2
-40195.1
-40194.9
-40194.8
-40194.7
-40194.6
-40194.5
-40194.4
-40194.3
-40194.2
-40194.1
-40194
-40193.9
-40193.8
-40193.8
-40193.7
-40193.6
-40193.5
-40193.4
-40193.4
-40193.3
-40193.2
-40193.2
-40193.1
-40193
-40193
-40192.9
-40192.8
-40192.8
-40192.7
-40192.7
-40192.6
-40192.6
-40192.5
-40192.5
-40192.4
-40192.4
-40192.3
-40192.3
-40192.3
-40192.2
-40192.2
-40192.1
-40192.1
-40192.1
-40192
-40192
-40192
-40192
-40191.9
-40191.9
-40191.9
-40191.9
-40191.8
-40191.8
-40191.8
-40191.8
-40191.8
-40191.8
-40191.7
-40191.7
-40191.7
-40191.7
-40191.7
-40191.7
-40191.7
-40191.7
-40191.7
-40191.7
-40220.4
-40220.3
-40220.3
-40220.3
-40220.2
-40220.1
-40220
-40220
-40219.8
-40219.7
-40219.6
-40219.4
-40219.2
-40219
-40218.8
-40218.6
-40218.4
-40218.2
-40217.9
-40217.6
-40217.4
-40217.1
-40216.8
-40216.5
-40216.2
-40215.8
-40215.5
-40215.1
-40214.8
-40214.4
-40214
-40213.6
-40213.2
-40212.8
-40212.4
-40212.1
-40211.8
-40211.5
-40211.2
-40210.9
-40210.6
-40210.3
-40210
-40209.7
-40209.4
-40209.2
-40208.9
-40208.6
-40208.3
-40208.1
-40207.8
-40207.5
-40207.3
-40207
-40206.8
-40206.5
-40206.3
-40206.1
-40205.8
-40205.6
-40205.4
-40205.1
-40204.9
-40204.7
-40204.5
-40204.3
-40204.1
-40203.9
-40203.7
-40203.5
-40203.3
-40203.1
-40203
-40202.8
-40202.6
-40202.4
-40202.3
-40202.1
-40202
-40201.8
-40201.6
-40201.5
-40201.3
-40201.2
-40201.1
-40200.9
-40200.8
-40200.7
-40200.5
-40200.4
-40200.3
-40200.2
-40200.1
-40199.9
-40199.8
-40199.7
-40199.6
-40199.5
-40199.4
-40199.3
-40199.2
-40199.1
-40199
-40198.9
-40198.9
-40198.8
-40198.7
-40198.6
-40198.5
-40198.5
-40198.4
-40198.3
-40198.2
-40198.2
-40198.1
-40198
-40198
-40197.9
-40197.9
-40197.8
-40197.7
-40197.7
-40197.6
-40197.6
-40197.5
-40197.5
-40197.4
-40197.4
-40197.4
-40197.3
-40197.3
-40197.2
-40197.2
-40197.2
-40197.1
-40197.1
-40197.1
-40197
-40197
-40197
-40197
-40196.9
-40196.9
-40196.9
-40196.9
-40196.8
-40196.8
-40196.8
-40196.8
-40196.8
-40196.8
-40196.8
-40196.7
-40196.7
-40196.7
-40196.7
-40196.7
-40196.7
-40196.7
-40196.7
-40226.3
-40226.2
-40226.2
-40226.2
-40226.1
-40226
-40226
-40225.8
-40225.7
-40225.6
-40225.4
-40225.3
-40225.1
-40224.9
-40224.7
-40224.5
-40224.3
-40224
-40223.8
-40223.5
-40223.2
-40222.9
-40222.6
-40222.3
-40222
-40221.7
-40221.3
-40220.9
-40220.6
-40220.2
-40219.8
-40219.4
-40219
-40218.6
-40218.2
-40217.8
-40217.3
-40217
-40216.7
-40216.4
-40216.1
-40215.8
-40215.6
-40215.3
-40215
-40214.7
-40214.4
-40214.1
-40213.9
-40213.6
-40213.3
-40213.1
-40212.8
-40212.6
-40212.3
-40212.1
-40211.8
-40211.6
-40211.3
-40211.1
-40210.9
-40210.7
-40210.4
-40210.2
-40210
-40209.8
-40209.6
-40209.4
-40209.2
-40209
-40208.8
-40208.7
-40208.5
-40208.3
-40208.1
-40208
-40207.8
-40207.6
-40207.5
-40207.3
-40207.2
-40207
-40206.9
-40206.7
-40206.6
-40206.5
-40206.3
-40206.2
-40206.1
-40205.9
-40205.8
-40205.7
-40205.6
-40205.5
-40205.4
-40205.3
-40205.2
-40205
-40204.9
-40204.8
-40204.8
-40204.7
-40204.6
-40204.5
-40204.4
-40204.3
-40204.2
-40204.1
-40204.1
-40204
-40203.9
-40203.8
-40203.8
-40203.7
-40203.6
-40203.6
-40203.5
-40203.5
-40203.4
-40203.3
-40203.3
-40203.2
-40203.2
-40203.1
-40203.1
-40203
-40203
-40202.9
-40202.9
-40202.9
-40202.8
-40202.8
-40202.7
-40202.7
-40202.7
-40202.6
-40202.6
-40202.6
-40202.5
-40202.5
-40202.5
-40202.5
-40202.4
-40202.4
-40202.4
-40202.4
-40202.4
-40202.4
-40202.3
-40202.3
-40202.3
-40202.3
-40202.3
-40202.3
-40202.3
-40202.3
-40202.3
-40202.3
-40202.3
-40202.3
-40232.7
-40232.7
-40232.7
-40232.6
-40232.6
-40232.5
-40232.4
-40232.3
-40232.2
-40232
-40231.9
-40231.7
-40231.6
-40231.4
-40231.1
-40230.9
-40230.7
-40230.4
-40230.2
-40229.9
-40229.6
-40229.3
-40229
-40228.7
-40228.4
-40228
-40227.7
-40227.3
-40226.9
-40226.5
-40226.1
-40225.7
-40225.3
-40224.9
-40224.5
-40224
-40223.6
-40223.2
-40222.8
-40222.5
-40222.2
-40221.9
-40221.6
-40221.3
-40221
-40220.7
-40220.5
-40220.2
-40219.9
-40219.6
-40219.4
-40219.1
-40218.8
-40218.6
-40218.3
-40218.1
-40217.8
-40217.6
-40217.4
-40217.1
-40216.9
-40216.7
-40216.5
-40216.3
-40216
-40215.8
-40215.6
-40215.4
-40215.2
-40215.1
-40214.9
-40214.7
-40214.5
-40214.3
-40214.2
-40214
-40213.8
-40213.7
-40213.5
-40213.3
-40213.2
-40213.1
-40212.9
-40212.8
-40212.6
-40212.5
-40212.4
-40212.2
-40212.1
-40212
-40211.9
-40211.7
-40211.6
-40211.5
-40211.4
-40211.3
-40211.2
-40211.1
-40211
-40210.9
-40210.8
-40210.7
-40210.6
-40210.5
-40210.4
-40210.4
-40210.3
-40210.2
-40210.1
-40210
-40210
-40209.9
-40209.8
-40209.8
-40209.7
-40209.6
-40209.6
-40209.5
-40209.4
-40209.4
-40209.3
-40209.3
-40209.2
-40209.2
-40209.1
-40209.1
-40209
-40209
-40208.9
-40208.9
-40208.9
-40208.8
-40208.8
-40208.8
-40208.7
-40208.7
-40208.7
-40208.6
-40208.6
-40208.6
-40208.6
-40208.5
-40208.5
-40208.5
-40208.5
-40208.4
-40208.4
-40208.4
-40208.4
-40208.4
-40208.4
-40208.4
-40208.3
-40208.3
-40208.3
-40208.3
-40208.3
-40208.3
-40208.3
-40208.3
-40239.7
-40239.7
-40239.7
-40239.6
-40239.6
-40239.5
-40239.4
-40239.3
-40239.2
-40239
-40238.9
-40238.7
-40238.5
-40238.3
-40238.1
-40237.9
-40237.7
-40237.4
-40237.1
-40236.9
-40236.6
-40236.3
-40235.9
-40235.6
-40235.3
-40234.9
-40234.6
-40234.2
-40233.8
-40233.4
-40233
-40232.6
-40232.2
-40231.7
-40231.3
-40230.9
-40230.4
-40230
-40229.5
-40229.1
-40228.8
-40228.5
-40228.2
-40227.9
-40227.6
-40227.3
-40227
-40226.7
-40226.5
-40226.2
-40225.9
-40225.6
-40225.4
-40225.1
-40224.9
-40224.6
-40224.4
-40224.1
-40223.9
-40223.7
-40223.5
-40223.2
-40223
-40222.8
-40222.6
-40222.4
-40222.2
-40222
-40221.8
-40221.6
-40221.4
-40221.2
-40221.1
-40220.9
-40220.7
-40220.5
-40220.4
-40220.2
-40220.1
-40219.9
-40219.8
-40219.6
-40219.5
-40219.3
-40219.2
-40219
-40218.9
-40218.8
-40218.7
-40218.5
-40218.4
-40218.3
-40218.2
-40218.1
-40218
-40217.9
-40217.8
-40217.7
-40217.6
-40217.5
-40217.4
-40217.3
-40217.2
-40217.1
-40217
-40216.9
-40216.8
-40216.8
-40216.7
-40216.6
-40216.5
-40216.5
-40216.4
-40216.3
-40216.3
-40216.2
-40216.1
-40216.1
-40216
-40216
-40215.9
-40215.9
-40215.8
-40215.8
-40215.7
-40215.7
-40215.6
-40215.6
-40215.5
-40215.5
-40215.4
-40215.4
-40215.4
-40215.3
-40215.3
-40215.3
-40215.2
-40215.2
-40215.2
-40215.2
-40215.1
-40215.1
-40215.1
-40215.1
-40215
-40215
-40215
-40215
-40215
-40215
-40215
-40214.9
-40214.9
-40214.9
-40214.9
-40214.9
-40214.9
-40214.9
-40214.9
-40214.9
-40247.3
-40247.3
-40247.2
-40247.2
-40247.1
-40247.1
-40247
-40246.8
-40246.7
-40246.6
-40246.4
-40246.2
-40246.1
-40245.9
-40245.6
-40245.4
-40245.2
-40244.9
-40244.6
-40244.4
-40244
-40243.7
-40243.4
-40243.1
-40242.7
-40242.4
-40242
-40241.6
-40241.2
-40240.8
-40240.4
-40240
-40239.6
-40239.1
-40238.7
-40238.2
-40237.8
-40237.3
-40236.8
-40236.3
-40235.8
-40235.5
-40235.2
-40234.9
-40234.7
-40234.4
-40234.1
-40233.8
-40233.5
-40233.2
-40233
-40232.7
-40232.4
-40232.2
-40231.9
-40231.7
-40231.4
-40231.2
-40231
-40230.7
-40230.5
-40230.3
-40230.1
-40229.8
-40229.6
-40229.4
-40229.2
-40229
-40228.8
-40228.7
-40228.5
-40228.3
-40228.1
-40227.9
-40227.8
-40227.6
-40227.4
-40227.3
-40227.1
-40227
-40226.8
-40226.7
-40226.5
-40226.4
-40226.2
-40226.1
-40226
-40225.9
-40225.7
-40225.6
-40225.5
-40225.4
-40225.3
-40225.1
-40225
-40224.9
-40224.8
-40224.7
-40224.6
-40224.5
-40224.4
-40224.3
-40224.3
-40224.2
-40224.1
-40224
-40223.9
-40223.8
-40223.8
-40223.7
-40223.6
-40223.5
-40223.5
-40223.4
-40223.3
-40223.3
-40223.2
-40223.2
-40223.1
-40223
-40223
-40222.9
-40222.9
-40222.8
-40222.8
-40222.7
-40222.7
-40222.7
-40222.6
-40222.6
-40222.5
-40222.5
-40222.5
-40222.4
-40222.4
-40222.4
-40222.3
-40222.3
-40222.3
-40222.2
-40222.2
-40222.2
-40222.2
-40222.2
-40222.1
-40222.1
-40222.1
-40222.1
-40222.1
-40222.1
-40222
-40222
-40222
-40222
-40222
-40222
-40222
-40222
-40222
-40222
-40255.4
-40255.4
-40255.3
-40255.3
-40255.2
-40255.1
-40255
-40254.9
-40254.8
-40254.7
-40254.5
-40254.3
-40254.1
-40253.9
-40253.7
-40253.5
-40253.2
-40253
-40252.7
-40252.4
-40252.1
-40251.8
-40251.4
-40251.1
-40250.7
-40250.4
-40250
-40249.6
-40249.2
-40248.8
-40248.4
-40247.9
-40247.5
-40247
-40246.6
-40246.1
-40245.6
-40245.2
-40244.7
-40244.2
-40243.7
-40243.2
-40242.8
-40242.5
-40242.2
-40241.9
-40241.7
-40241.4
-40241.1
-40240.8
-40240.5
-40240.3
-40240
-40239.8
-40239.5
-40239.3
-40239
-40238.8
-40238.5
-40238.3
-40238.1
-40237.9
-40237.6
-40237.4
-40237.2
-40237
-40236.8
-40236.6
-40236.4
-40236.2
-40236
-40235.9
-40235.7
-40235.5
-40235.3
-40235.2
-40235
-40234.8
-40234.7
-40234.5
-40234.4
-40234.2
-40234.1
-40234
-40233.8
-40233.7
-40233.6
-40233.4
-40233.3
-40233.2
-40233.1
-40233
-40232.8
-40232.7
-40232.6
-40232.5
-40232.4
-40232.3
-40232.2
-40232.1
-40232
-40231.9
-40231.9
-40231.8
-40231.7
-40231.6
-40231.5
-40231.4
-40231.4
-40231.3
-40231.2
-40231.1
-40231.1
-40231
-40230.9
-40230.9
-40230.8
-40230.8
-40230.7
-40230.6
-40230.6
-40230.5
-40230.5
-40230.4
-40230.4
-40230.3
-40230.3
-40230.3
-40230.2
-40230.2
-40230.1
-40230.1
-40230.1
-40230
-40230
-40230
-40229.9
-40229.9
-40229.9
-40229.9
-40229.8
-40229.8
-40229.8
-40229.8
-40229.7
-40229.7
-40229.7
-40229.7
-40229.7
-40229.7
-40229.6
-40229.6
-40229.6
-40229.6
-40229.6
-40229.6
-40229.6
-40229.6
-40229.6
-40229.6
-40264
-40264
-40264
-40263.9
-40263.9
-40263.8
-40263.7
-40263.6
-40263.4
-40263.3
-40263.1
-40262.9
-40262.7
-40262.5
-40262.3
-40262.1
-40261.8
-40261.5
-40261.2
-40260.9
-40260.6
-40260.3
-40260
-40259.6
-40259.3
-40258.9
-40258.5
-40258.1
-40257.7
-40257.3
-40256.8
-40256.4
-40256
-40255.5
-40255
-40254.6
-40254.1
-40253.6
-40253.1
-40252.6
-40252.1
-40251.5
-40251
-40250.6
-40250.3
-40250
-40249.7
-40249.5
-40249.2
-40248.9
-40248.6
-40248.4
-40248.1
-40247.8
-40247.6
-40247.3
-40247.1
-40246.8
-40246.6
-40246.4
-40246.1
-40245.9
-40245.7
-40245.5
-40245.3
-40245.1
-40244.9
-40244.7
-40244.5
-40244.3
-40244.1
-40243.9
-40243.8
-40243.6
-40243.4
-40243.2
-40243.1
-40242.9
-40242.8
-40242.6
-40242.5
-40242.3
-40242.2
-40242
-40241.9
-40241.8
-40241.7
-40241.5
-40241.4
-40241.3
-40241.2
-40241
-40240.9
-40240.8
-40240.7
-40240.6
-40240.5
-40240.4
-40240.3
-40240.2
-40240.1
-40240
-40239.9
-40239.9
-40239.8
-40239.7
-40239.6
-40239.5
-40239.5
-40239.4
-40239.3
-40239.2
-40239.2
-40239.1
-40239
-40239
-40238.9
-40238.9
-40238.8
-40238.8
-40238.7
-40238.6
-40238.6
-40238.5
-40238.5
-40238.5
-40238.4
-40238.4
-40238.3
-40238.3
-40238.2
-40238.2
-40238.2
-40238.1
-40238.1
-40238.1
-40238
-40238
-40238
-40238
-40237.9
-40237.9
-40237.9
-40237.9
-40237.9
-40237.8
-40237.8
-40237.8
-40237.8
-40237.8
-40237.8
-40237.8
-40237.7
-40237.7
-40237.7
-40237.7
-40237.7
-40237.7
-40237.7
-40237.7
-40273.2
-40273.2
-40273.1
-40273.1
-40273
-40272.9
-40272.9
-40272.7
-40272.6
-40272.4
-40272.3
-40272.1
-40271.9
-40271.7
-40271.4
-40271.2
-40270.9
-40270.7
-40270.4
-40270
-40269.7
-40269.4
-40269.1
-40268.7
-40268.3
-40267.9
-40267.5
-40267.1
-40266.7
-40266.3
-40265.8
-40265.4
-40264.9
-40264.5
-40264
-40263.5
-40263
-40262.5
-40262
-40261.5
-40261
-40260.4
-40259.9
-40259.3
-40258.9
-40258.6
-40258.3
-40258
-40257.8
-40257.5
-40257.2
-40256.9
-40256.7
-40256.4
-40256.1
-40255.9
-40255.7
-40255.4
-40255.2
-40254.9
-40254.7
-40254.5
-40254.3
-40254.1
-40253.9
-40253.7
-40253.5
-40253.3
-40253.1
-40252.9
-40252.7
-40252.5
-40252.3
-40252.2
-40252
-40251.8
-40251.7
-40251.5
-40251.4
-40251.2
-40251.1
-40250.9
-40250.8
-40250.6
-40250.5
-40250.4
-40250.2
-40250.1
-40250
-40249.9
-40249.8
-40249.6
-40249.5
-40249.4
-40249.3
-40249.2
-40249.1
-40249
-40248.9
-40248.8
-40248.7
-40248.6
-40248.6
-40248.5
-40248.4
-40248.3
-40248.2
-40248.1
-40248.1
-40248
-40247.9
-40247.9
-40247.8
-40247.7
-40247.7
-40247.6
-40247.5
-40247.5
-40247.4
-40247.4
-40247.3
-40247.3
-40247.2
-40247.2
-40247.1
-40247.1
-40247
-40247
-40246.9
-40246.9
-40246.9
-40246.8
-40246.8
-40246.8
-40246.7
-40246.7
-40246.7
-40246.6
-40246.6
-40246.6
-40246.6
-40246.5
-40246.5
-40246.5
-40246.5
-40246.5
-40246.4
-40246.4
-40246.4
-40246.4
-40246.4
-40246.4
-40246.4
-40246.4
-40246.4
-40246.3
-40246.3
-40246.3
-40246.3
-40246.3
-40282.9
-40282.9
-40282.9
-40282.8
-40282.7
-40282.7
-40282.6
-40282.4
-40282.3
-40282.1
-40282
-40281.8
-40281.6
-40281.3
-40281.1
-40280.9
-40280.6
-40280.3
-40280
-40279.7
-40279.4
-40279
-40278.7
-40278.3
-40277.9
-40277.5
-40277.1
-40276.7
-40276.3
-40275.8
-40275.4
-40274.9
-40274.5
-40274
-40273.5
-40273
-40272.5
-40272
-40271.4
-40270.9
-40270.4
-40269.8
-40269.3
-40268.7
-40268.2
-40267.7
-40267.4
-40267.1
-40266.9
-40266.6
-40266.3
-40266
-40265.8
-40265.5
-40265.2
-40265
-40264.7
-40264.5
-40264.3
-40264
-40263.8
-40263.6
-40263.4
-40263.2
-40262.9
-40262.7
-40262.5
-40262.3
-40262.2
-40262
-40261.8
-40261.6
-40261.4
-40261.3
-40261.1
-40260.9
-40260.8
-40260.6
-40260.5
-40260.3
-40260.2
-40260
-40259.9
-40259.7
-40259.6
-40259.5
-40259.4
-40259.2
-40259.1
-40259
-40258.9
-40258.8
-40258.6
-40258.5
-40258.4
-40258.3
-40258.2
-40258.1
-40258
-40257.9
-40257.9
-40257.8
-40257.7
-40257.6
-40257.5
-40257.4
-40257.4
-40257.3
-40257.2
-40257.1
-40257.1
-40257
-40256.9
-40256.9
-40256.8
-40256.7
-40256.7
-40256.6
-40256.6
-40256.5
-40256.5
-40256.4
-40256.4
-40256.3
-40256.3
-40256.2
-40256.2
-40256.1
-40256.1
-40256
-40256
-40256
-40255.9
-40255.9
-40255.9
-40255.8
-40255.8
-40255.8
-40255.8
-40255.7
-40255.7
-40255.7
-40255.7
-40255.6
-40255.6
-40255.6
-40255.6
-40255.6
-40255.6
-40255.5
-40255.5
-40255.5
-40255.5
-40255.5
-40255.5
-40255.5
-40255.5
-40255.5
-40255.5
-40255.5
-40293.2
-40293.2
-40293.1
-40293.1
-40293
-40292.9
-40292.8
-40292.7
-40292.5
-40292.4
-40292.2
-40292
-40291.8
-40291.6
-40291.3
-40291.1
-40290.8
-40290.5
-40290.2
-40289.9
-40289.5
-40289.2
-40288.8
-40288.4
-40288
-40287.6
-40287.2
-40286.8
-40286.4
-40285.9
-40285.4
-40285
-40284.5
-40284
-40283.5
-40283
-40282.5
-40282
-40281.4
-40280.9
-40280.3
-40279.8
-40279.2
-40278.6
-40278.1
-40277.5
-40277
-40276.7
-40276.4
-40276.2
-40275.9
-40275.6
-40275.3
-40275.1
-40274.8
-40274.6
-40274.3
-40274.1
-40273.9
-40273.6
-40273.4
-40273.2
-40273
-40272.7
-40272.5
-40272.3
-40272.1
-40271.9
-40271.7
-40271.6
-40271.4
-40271.2
-40271
-40270.9
-40270.7
-40270.5
-40270.4
-40270.2
-40270.1
-40269.9
-40269.8
-40269.6
-40269.5
-40269.3
-40269.2
-40269.1
-40269
-40268.8
-40268.7
-40268.6
-40268.5
-40268.4
-40268.3
-40268.2
-40268
-40267.9
-40267.8
-40267.7
-40267.7
-40267.6
-40267.5
-40267.4
-40267.3
-40267.2
-40267.1
-40267.1
-40267
-40266.9
-40266.8
-40266.8
-40266.7
-40266.6
-40266.6
-40266.5
-40266.4
-40266.4
-40266.3
-40266.2
-40266.2
-40266.1
-40266.1
-40266
-40266
-40265.9
-40265.9
-40265.8
-40265.8
-40265.8
-40265.7
-40265.7
-40265.6
-40265.6
-40265.6
-40265.5
-40265.5
-40265.5
-40265.4
-40265.4
-40265.4
-40265.4
-40265.3
-40265.3
-40265.3
-40265.3
-40265.3
-40265.2
-40265.2
-40265.2
-40265.2
-40265.2
-40265.2
-40265.2
-40265.2
-40265.1
-40265.1
-40265.1
-40265.1
-40265.1
-40265.1
-40265.1
-40304
-40303.9
-40303.9
-40303.9
-40303.8
-40303.7
-40303.6
-40303.4
-40303.3
-40303.1
-40303
-40302.8
-40302.5
-40302.3
-40302.1
-40301.8
-40301.5
-40301.2
-40300.9
-40300.6
-40300.2
-40299.9
-40299.5
-40299.1
-40298.7
-40298.3
-40297.9
-40297.4
-40297
-40296.5
-40296
-40295.6
-40295.1
-40294.6
-40294.1
-40293.5
-40293
-40292.5
-40291.9
-40291.4
-40290.8
-40290.2
-40289.7
-40289.1
-40288.5
-40287.9
-40287.3
-40286.8
-40286.6
-40286.3
-40286
-40285.7
-40285.4
-40285.2
-40284.9
-40284.7
-40284.4
-40284.2
-40283.9
-40283.7
-40283.5
-40283.3
-40283.1
-40282.8
-40282.6
-40282.4
-40282.2
-40282
-40281.8
-40281.7
-40281.5
-40281.3
-40281.1
-40281
-40280.8
-40280.6
-40280.5
-40280.3
-40280.2
-40280
-40279.9
-40279.7
-40279.6
-40279.5
-40279.3
-40279.2
-40279.1
-40279
-40278.8
-40278.7
-40278.6
-40278.5
-40278.4
-40278.3
-40278.2
-40278.1
-40278
-40277.9
-40277.8
-40277.7
-40277.6
-40277.5
-40277.4
-40277.4
-40277.3
-40277.2
-40277.1
-40277
-40277