/*--------------------------------*- C++ -*----------------------------------*\
| =========                 |                                                 |
| \\      /  F ield         | OpenFOAM: The Open Source CFD Toolbox           |
|  \\    /   O peration     | Version:  v2012                                 |
|   \\  /    A nd           | Website:  www.openfoam.com                      |
|    \\/     M anipulation  |                                                 |
\*---------------------------------------------------------------------------*/
FoamFile
{
    version     2.0;
    format      ascii;
    class       volScalarField;
    location    "0";
    object      T;
}
// * * * * * * * * * * * * * * * * * * * * * * * * * * * * * * * * * * * * * //

dimensions      [0 0 0 1 0 0 0];


internalField   nonuniform List<scalar> 
51200
(
300
300
300
300
300
300
300
300
300
300
300
300
300
300
300
300
300
300
300
300
300
300
300
300
300
300
300
300
300
300
300
300
300
300
300
300
300
300
300
300
300
300
300
300
300
300
300
300
300
300
300
300
300
300
300
300
300
300
300
300
300
300
300
300
300
300
300
300
300
300
300
300
300
300
300
300
300
300
300
300
300
300
300
300
300
300
300
300
300
300
300
300
300
300
300
300
300
300
300
300
300
300
300
300
300
300
300
300
300
300
300
300
300
300
300
300
300
300
300
300
300
300
300
300
300
300
300
300
300
300
300
300
300
300
300
300
300
300
300
300
300
300
300
300
300
300
300
300
300
300
300
300
300
300
300
300
300
300
300
300
299.725
299.724
299.724
299.722
299.721
299.718
299.716
299.713
299.709
299.705
299.7
299.695
299.693
299.693
299.693
299.693
299.693
299.693
299.693
299.693
299.693
299.693
299.693
299.693
299.693
299.693
299.693
299.693
299.693
299.693
299.693
299.693
299.693
299.693
299.693
299.693
299.693
299.693
299.693
299.693
299.693
299.693
299.693
299.693
299.693
299.693
299.693
299.693
299.693
299.693
299.693
299.693
299.693
299.693
299.693
299.693
299.693
299.693
299.693
299.693
299.693
299.693
299.693
299.693
299.693
299.693
299.693
299.693
299.693
299.693
299.693
299.693
299.693
299.693
299.693
299.693
299.693
299.693
299.693
299.693
299.693
299.693
299.693
299.693
299.693
299.693
299.693
299.693
299.693
299.693
299.693
299.693
299.693
299.693
299.693
299.693
299.693
299.693
299.693
299.693
299.693
299.693
299.693
299.693
299.693
299.693
299.693
299.693
299.693
299.693
299.693
299.693
299.693
299.693
299.693
299.693
299.693
299.693
299.693
299.693
299.693
299.693
299.693
299.693
299.693
299.693
299.693
299.693
299.693
299.693
299.693
299.693
299.693
299.693
299.693
299.693
299.693
299.693
299.693
299.693
299.693
299.693
299.693
299.693
299.693
299.693
299.693
299.693
299.693
299.693
299.693
299.693
299.693
299.693
299.693
299.693
299.693
299.693
299.693
299.693
299.449
299.449
299.448
299.447
299.445
299.443
299.44
299.437
299.433
299.429
299.424
299.419
299.413
299.407
299.401
299.393
299.387
299.387
299.387
299.387
299.387
299.387
299.387
299.387
299.387
299.387
299.387
299.387
299.387
299.387
299.387
299.387
299.387
299.387
299.387
299.387
299.387
299.387
299.387
299.387
299.387
299.387
299.387
299.387
299.387
299.387
299.387
299.387
299.387
299.387
299.387
299.387
299.387
299.387
299.387
299.387
299.387
299.387
299.387
299.387
299.387
299.387
299.387
299.387
299.387
299.387
299.387
299.387
299.387
299.387
299.387
299.387
299.387
299.387
299.387
299.387
299.387
299.387
299.387
299.387
299.387
299.387
299.387
299.387
299.387
299.387
299.387
299.387
299.387
299.387
299.387
299.387
299.387
299.387
299.387
299.387
299.387
299.387
299.387
299.387
299.387
299.387
299.387
299.387
299.387
299.387
299.387
299.387
299.387
299.387
299.387
299.387
299.387
299.387
299.387
299.387
299.387
299.387
299.387
299.387
299.387
299.387
299.387
299.387
299.387
299.387
299.387
299.387
299.387
299.387
299.387
299.387
299.387
299.387
299.387
299.387
299.387
299.387
299.387
299.387
299.387
299.387
299.387
299.387
299.387
299.387
299.387
299.387
299.387
299.387
299.387
299.387
299.387
299.387
299.387
299.387
299.387
299.387
299.387
299.387
299.174
299.174
299.173
299.172
299.17
299.168
299.165
299.162
299.158
299.153
299.149
299.143
299.138
299.131
299.125
299.117
299.11
299.101
299.093
299.084
299.08
299.08
299.08
299.08
299.08
299.08
299.08
299.08
299.08
299.08
299.08
299.08
299.08
299.08
299.08
299.08
299.08
299.08
299.08
299.08
299.08
299.08
299.08
299.08
299.08
299.08
299.08
299.08
299.08
299.08
299.08
299.08
299.08
299.08
299.08
299.08
299.08
299.08
299.08
299.08
299.08
299.08
299.08
299.08
299.08
299.08
299.08
299.08
299.08
299.08
299.08
299.08
299.08
299.08
299.08
299.08
299.08
299.08
299.08
299.08
299.08
299.08
299.08
299.08
299.08
299.08
299.08
299.08
299.08
299.08
299.08
299.08
299.08
299.08
299.08
299.08
299.08
299.08
299.08
299.08
299.08
299.08
299.08
299.08
299.08
299.08
299.08
299.08
299.08
299.08
299.08
299.08
299.08
299.08
299.08
299.08
299.08
299.08
299.08
299.08
299.08
299.08
299.08
299.08
299.08
299.08
299.08
299.08
299.08
299.08
299.08
299.08
299.08
299.08
299.08
299.08
299.08
299.08
299.08
299.08
299.08
299.08
299.08
299.08
299.08
299.08
299.08
299.08
299.08
299.08
299.08
299.08
299.08
299.08
299.08
299.08
299.08
299.08
299.08
299.08
298.899
298.898
298.898
298.896
298.895
298.892
298.889
298.886
298.882
298.878
298.873
298.868
298.862
298.855
298.848
298.841
298.833
298.825
298.816
298.807
298.797
298.787
298.777
298.774
298.774
298.774
298.774
298.774
298.774
298.774
298.774
298.774
298.774
298.774
298.774
298.774
298.774
298.774
298.774
298.774
298.774
298.774
298.774
298.774
298.774
298.774
298.774
298.774
298.774
298.774
298.774
298.774
298.774
298.774
298.774
298.774
298.774
298.774
298.774
298.774
298.774
298.774
298.774
298.774
298.774
298.774
298.774
298.774
298.774
298.774
298.774
298.774
298.774
298.774
298.774
298.774
298.774
298.774
298.774
298.774
298.774
298.774
298.774
298.774
298.774
298.774
298.774
298.774
298.774
298.774
298.774
298.774
298.774
298.774
298.774
298.774
298.774
298.774
298.774
298.774
298.774
298.774
298.774
298.774
298.774
298.774
298.774
298.774
298.774
298.774
298.774
298.774
298.774
298.774
298.774
298.774
298.774
298.774
298.774
298.774
298.774
298.774
298.774
298.774
298.774
298.774
298.774
298.774
298.774
298.774
298.774
298.774
298.774
298.774
298.774
298.774
298.774
298.774
298.774
298.774
298.774
298.774
298.774
298.774
298.774
298.774
298.774
298.774
298.774
298.774
298.774
298.774
298.774
298.774
298.774
298.774
298.774
298.774
298.774
298.774
298.623
298.623
298.622
298.621
298.619
298.617
298.614
298.611
298.607
298.602
298.597
298.592
298.586
298.579
298.572
298.565
298.557
298.548
298.54
298.53
298.52
298.51
298.499
298.488
298.477
298.467
298.467
298.467
298.467
298.467
298.467
298.467
298.467
298.467
298.467
298.467
298.467
298.467
298.467
298.467
298.467
298.467
298.467
298.467
298.467
298.467
298.467
298.467
298.467
298.467
298.467
298.467
298.467
298.467
298.467
298.467
298.467
298.467
298.467
298.467
298.467
298.467
298.467
298.467
298.467
298.467
298.467
298.467
298.467
298.467
298.467
298.467
298.467
298.467
298.467
298.467
298.467
298.467
298.467
298.467
298.467
298.467
298.467
298.467
298.467
298.467
298.467
298.467
298.467
298.467
298.467
298.467
298.467
298.467
298.467
298.467
298.467
298.467
298.467
298.467
298.467
298.467
298.467
298.467
298.467
298.467
298.467
298.467
298.467
298.467
298.467
298.467
298.467
298.467
298.467
298.467
298.467
298.467
298.467
298.467
298.467
298.467
298.467
298.467
298.467
298.467
298.467
298.467
298.467
298.467
298.467
298.467
298.467
298.467
298.467
298.467
298.467
298.467
298.467
298.467
298.467
298.467
298.467
298.467
298.467
298.467
298.467
298.467
298.467
298.467
298.467
298.467
298.467
298.467
298.467
298.467
298.467
298.467
298.467
298.467
298.348
298.348
298.347
298.346
298.344
298.341
298.338
298.335
298.331
298.326
298.321
298.316
298.31
298.303
298.296
298.288
298.28
298.272
298.263
298.253
298.243
298.233
298.222
298.211
298.199
298.187
298.174
298.161
298.161
298.161
298.161
298.161
298.161
298.161
298.161
298.161
298.161
298.161
298.161
298.161
298.161
298.161
298.161
298.161
298.161
298.161
298.161
298.161
298.161
298.161
298.161
298.161
298.161
298.161
298.161
298.161
298.161
298.161
298.161
298.161
298.161
298.161
298.161
298.161
298.161
298.161
298.161
298.161
298.161
298.161
298.161
298.161
298.161
298.161
298.161
298.161
298.161
298.161
298.161
298.161
298.161
298.161
298.161
298.161
298.161
298.161
298.161
298.161
298.161
298.161
298.161
298.161
298.161
298.161
298.161
298.161
298.161
298.161
298.161
298.161
298.161
298.161
298.161
298.161
298.161
298.161
298.161
298.161
298.161
298.161
298.161
298.161
298.161
298.161
298.161
298.161
298.161
298.161
298.161
298.161
298.161
298.161
298.161
298.161
298.161
298.161
298.161
298.161
298.161
298.161
298.161
298.161
298.161
298.161
298.161
298.161
298.161
298.161
298.161
298.161
298.161
298.161
298.161
298.161
298.161
298.161
298.161
298.161
298.161
298.161
298.161
298.161
298.161
298.161
298.161
298.161
298.161
298.161
298.161
298.161
298.073
298.073
298.072
298.07
298.068
298.066
298.063
298.059
298.055
298.051
298.046
298.04
298.034
298.027
298.02
298.012
298.004
297.995
297.986
297.976
297.966
297.956
297.945
297.933
297.921
297.909
297.896
297.883
297.87
297.856
297.854
297.854
297.854
297.854
297.854
297.854
297.854
297.854
297.854
297.854
297.854
297.854
297.854
297.854
297.854
297.854
297.854
297.854
297.854
297.854
297.854
297.854
297.854
297.854
297.854
297.854
297.854
297.854
297.854
297.854
297.854
297.854
297.854
297.854
297.854
297.854
297.854
297.854
297.854
297.854
297.854
297.854
297.854
297.854
297.854
297.854
297.854
297.854
297.854
297.854
297.854
297.854
297.854
297.854
297.854
297.854
297.854
297.854
297.854
297.854
297.854
297.854
297.854
297.854
297.854
297.854
297.854
297.854
297.854
297.854
297.854
297.854
297.854
297.854
297.854
297.854
297.854
297.854
297.854
297.854
297.854
297.854
297.854
297.854
297.854
297.854
297.854
297.854
297.854
297.854
297.854
297.854
297.854
297.854
297.854
297.854
297.854
297.854
297.854
297.854
297.854
297.854
297.854
297.854
297.854
297.854
297.854
297.854
297.854
297.854
297.854
297.854
297.854
297.854
297.854
297.854
297.854
297.854
297.854
297.854
297.854
297.854
297.854
297.854
297.854
297.854
297.854
297.854
297.854
297.854
297.798
297.797
297.796
297.795
297.793
297.791
297.787
297.784
297.78
297.775
297.77
297.764
297.758
297.751
297.744
297.736
297.727
297.719
297.709
297.7
297.689
297.678
297.667
297.656
297.644
297.631
297.618
297.605
297.591
297.577
297.562
297.548
297.548
297.548
297.548
297.548
297.548
297.548
297.548
297.548
297.548
297.548
297.548
297.548
297.548
297.548
297.548
297.548
297.548
297.548
297.548
297.548
297.548
297.548
297.548
297.548
297.548
297.548
297.548
297.548
297.548
297.548
297.548
297.548
297.548
297.548
297.548
297.548
297.548
297.548
297.548
297.548
297.548
297.548
297.548
297.548
297.548
297.548
297.548
297.548
297.548
297.548
297.548
297.548
297.548
297.548
297.548
297.548
297.548
297.548
297.548
297.548
297.548
297.548
297.548
297.548
297.548
297.548
297.548
297.548
297.548
297.548
297.548
297.548
297.548
297.548
297.548
297.548
297.548
297.548
297.548
297.548
297.548
297.548
297.548
297.548
297.548
297.548
297.548
297.548
297.548
297.548
297.548
297.548
297.548
297.548
297.548
297.548
297.548
297.548
297.548
297.548
297.548
297.548
297.548
297.548
297.548
297.548
297.548
297.548
297.548
297.548
297.548
297.548
297.548
297.548
297.548
297.548
297.548
297.548
297.548
297.548
297.548
297.548
297.548
297.548
297.548
297.548
297.548
297.548
297.522
297.522
297.521
297.52
297.518
297.515
297.512
297.508
297.504
297.499
297.494
297.488
297.482
297.475
297.467
297.459
297.451
297.442
297.432
297.423
297.412
297.401
297.39
297.378
297.366
297.353
297.34
297.326
297.312
297.298
297.283
297.268
297.252
297.241
297.241
297.241
297.241
297.241
297.241
297.241
297.241
297.241
297.241
297.241
297.241
297.241
297.241
297.241
297.241
297.241
297.241
297.241
297.241
297.241
297.241
297.241
297.241
297.241
297.241
297.241
297.241
297.241
297.241
297.241
297.241
297.241
297.241
297.241
297.241
297.241
297.241
297.241
297.241
297.241
297.241
297.241
297.241
297.241
297.241
297.241
297.241
297.241
297.241
297.241
297.241
297.241
297.241
297.241
297.241
297.241
297.241
297.241
297.241
297.241
297.241
297.241
297.241
297.241
297.241
297.241
297.241
297.241
297.241
297.241
297.241
297.241
297.241
297.241
297.241
297.241
297.241
297.241
297.241
297.241
297.241
297.241
297.241
297.241
297.241
297.241
297.241
297.241
297.241
297.241
297.241
297.241
297.241
297.241
297.241
297.241
297.241
297.241
297.241
297.241
297.241
297.241
297.241
297.241
297.241
297.241
297.241
297.241
297.241
297.241
297.241
297.241
297.241
297.241
297.241
297.241
297.241
297.241
297.241
297.241
297.241
297.241
297.241
297.241
297.241
297.241
297.247
297.247
297.246
297.244
297.242
297.24
297.236
297.233
297.228
297.224
297.218
297.212
297.206
297.199
297.191
297.183
297.174
297.165
297.156
297.145
297.135
297.124
297.112
297.1
297.088
297.075
297.061
297.048
297.034
297.019
297.004
296.989
296.973
296.957
296.94
296.934
296.934
296.934
296.934
296.934
296.934
296.934
296.934
296.934
296.934
296.934
296.934
296.934
296.934
296.934
296.934
296.934
296.934
296.934
296.934
296.934
296.934
296.934
296.934
296.934
296.934
296.934
296.934
296.934
296.934
296.934
296.934
296.934
296.934
296.934
296.934
296.934
296.934
296.934
296.934
296.934
296.934
296.934
296.934
296.934
296.934
296.934
296.934
296.934
296.934
296.934
296.934
296.934
296.934
296.934
296.934
296.934
296.934
296.934
296.934
296.934
296.934
296.934
296.934
296.934
296.934
296.934
296.934
296.934
296.934
296.934
296.934
296.934
296.934
296.934
296.934
296.934
296.934
296.934
296.934
296.934
296.934
296.934
296.934
296.934
296.934
296.934
296.934
296.934
296.934
296.934
296.934
296.934
296.934
296.934
296.934
296.934
296.934
296.934
296.934
296.934
296.934
296.934
296.934
296.934
296.934
296.934
296.934
296.934
296.934
296.934
296.934
296.934
296.934
296.934
296.934
296.934
296.934
296.934
296.934
296.934
296.934
296.934
296.934
296.934
296.972
296.971
296.97
296.969
296.967
296.964
296.961
296.957
296.953
296.948
296.942
296.936
296.93
296.922
296.915
296.907
296.898
296.888
296.879
296.868
296.858
296.846
296.835
296.822
296.81
296.797
296.783
296.769
296.755
296.74
296.725
296.709
296.693
296.677
296.66
296.643
296.628
296.628
296.628
296.628
296.628
296.628
296.628
296.628
296.628
296.628
296.628
296.628
296.628
296.628
296.628
296.628
296.628
296.628
296.628
296.628
296.628
296.628
296.628
296.628
296.628
296.628
296.628
296.628
296.628
296.628
296.628
296.628
296.628
296.628
296.628
296.628
296.628
296.628
296.628
296.628
296.628
296.628
296.628
296.628
296.628
296.628
296.628
296.628
296.628
296.628
296.628
296.628
296.628
296.628
296.628
296.628
296.628
296.628
296.628
296.628
296.628
296.628
296.628
296.628
296.628
296.628
296.628
296.628
296.628
296.628
296.628
296.628
296.628
296.628
296.628
296.628
296.628
296.628
296.628
296.628
296.628
296.628
296.628
296.628
296.628
296.628
296.628
296.628
296.628
296.628
296.628
296.628
296.628
296.628
296.628
296.628
296.628
296.628
296.628
296.628
296.628
296.628
296.628
296.628
296.628
296.628
296.628
296.628
296.628
296.628
296.628
296.628
296.628
296.628
296.628
296.628
296.628
296.628
296.628
296.628
296.628
296.628
296.628
296.628
296.696
296.696
296.695
296.694
296.691
296.689
296.685
296.682
296.677
296.672
296.666
296.66
296.654
296.646
296.638
296.63
296.621
296.612
296.602
296.591
296.58
296.569
296.557
296.544
296.532
296.518
296.504
296.49
296.476
296.461
296.445
296.429
296.413
296.397
296.38
296.362
296.345
296.327
296.321
296.321
296.321
296.321
296.321
296.321
296.321
296.321
296.321
296.321
296.321
296.321
296.321
296.321
296.321
296.321
296.321
296.321
296.321
296.321
296.321
296.321
296.321
296.321
296.321
296.321
296.321
296.321
296.321
296.321
296.321
296.321
296.321
296.321
296.321
296.321
296.321
296.321
296.321
296.321
296.321
296.321
296.321
296.321
296.321
296.321
296.321
296.321
296.321
296.321
296.321
296.321
296.321
296.321
296.321
296.321
296.321
296.321
296.321
296.321
296.321
296.321
296.321
296.321
296.321
296.321
296.321
296.321
296.321
296.321
296.321
296.321
296.321
296.321
296.321
296.321
296.321
296.321
296.321
296.321
296.321
296.321
296.321
296.321
296.321
296.321
296.321
296.321
296.321
296.321
296.321
296.321
296.321
296.321
296.321
296.321
296.321
296.321
296.321
296.321
296.321
296.321
296.321
296.321
296.321
296.321
296.321
296.321
296.321
296.321
296.321
296.321
296.321
296.321
296.321
296.321
296.321
296.321
296.321
296.321
296.321
296.321
296.421
296.421
296.42
296.418
296.416
296.413
296.41
296.406
296.401
296.396
296.391
296.384
296.377
296.37
296.362
296.353
296.344
296.335
296.325
296.314
296.303
296.291
296.279
296.266
296.253
296.24
296.226
296.211
296.197
296.181
296.166
296.15
296.133
296.116
296.099
296.082
296.064
296.046
296.027
296.015
296.015
296.015
296.015
296.015
296.015
296.015
296.015
296.015
296.015
296.015
296.015
296.015
296.015
296.015
296.015
296.015
296.015
296.015
296.015
296.015
296.015
296.015
296.015
296.015
296.015
296.015
296.015
296.015
296.015
296.015
296.015
296.015
296.015
296.015
296.015
296.015
296.015
296.015
296.015
296.015
296.015
296.015
296.015
296.015
296.015
296.015
296.015
296.015
296.015
296.015
296.015
296.015
296.015
296.015
296.015
296.015
296.015
296.015
296.015
296.015
296.015
296.015
296.015
296.015
296.015
296.015
296.015
296.015
296.015
296.015
296.015
296.015
296.015
296.015
296.015
296.015
296.015
296.015
296.015
296.015
296.015
296.015
296.015
296.015
296.015
296.015
296.015
296.015
296.015
296.015
296.015
296.015
296.015
296.015
296.015
296.015
296.015
296.015
296.015
296.015
296.015
296.015
296.015
296.015
296.015
296.015
296.015
296.015
296.015
296.015
296.015
296.015
296.015
296.015
296.015
296.015
296.015
296.015
296.015
296.015
296.146
296.145
296.144
296.143
296.141
296.138
296.134
296.13
296.126
296.121
296.115
296.108
296.101
296.094
296.086
296.077
296.068
296.058
296.047
296.037
296.025
296.013
296.001
295.988
295.975
295.961
295.947
295.932
295.917
295.902
295.886
295.87
295.853
295.836
295.819
295.801
295.783
295.764
295.746
295.727
295.708
295.708
295.708
295.708
295.708
295.708
295.708
295.708
295.708
295.708
295.708
295.708
295.708
295.708
295.708
295.708
295.708
295.708
295.708
295.708
295.708
295.708
295.708
295.708
295.708
295.708
295.708
295.708
295.708
295.708
295.708
295.708
295.708
295.708
295.708
295.708
295.708
295.708
295.708
295.708
295.708
295.708
295.708
295.708
295.708
295.708
295.708
295.708
295.708
295.708
295.708
295.708
295.708
295.708
295.708
295.708
295.708
295.708
295.708
295.708
295.708
295.708
295.708
295.708
295.708
295.708
295.708
295.708
295.708
295.708
295.708
295.708
295.708
295.708
295.708
295.708
295.708
295.708
295.708
295.708
295.708
295.708
295.708
295.708
295.708
295.708
295.708
295.708
295.708
295.708
295.708
295.708
295.708
295.708
295.708
295.708
295.708
295.708
295.708
295.708
295.708
295.708
295.708
295.708
295.708
295.708
295.708
295.708
295.708
295.708
295.708
295.708
295.708
295.708
295.708
295.708
295.708
295.708
295.708
295.708
295.87
295.87
295.869
295.867
295.865
295.862
295.859
295.855
295.85
295.845
295.839
295.832
295.825
295.817
295.809
295.8
295.791
295.781
295.77
295.759
295.748
295.736
295.723
295.71
295.697
295.683
295.668
295.653
295.638
295.622
295.606
295.59
295.573
295.555
295.538
295.52
295.501
295.483
295.464
295.445
295.425
295.405
295.402
295.402
295.402
295.402
295.402
295.402
295.402
295.402
295.402
295.402
295.402
295.402
295.402
295.402
295.402
295.402
295.402
295.402
295.402
295.402
295.402
295.402
295.402
295.402
295.402
295.402
295.402
295.402
295.402
295.402
295.402
295.402
295.402
295.402
295.402
295.402
295.402
295.402
295.402
295.402
295.402
295.402
295.402
295.402
295.402
295.402
295.402
295.402
295.402
295.402
295.402
295.402
295.402
295.402
295.402
295.402
295.402
295.402
295.402
295.402
295.402
295.402
295.402
295.402
295.402
295.402
295.402
295.402
295.402
295.402
295.402
295.402
295.402
295.402
295.402
295.402
295.402
295.402
295.402
295.402
295.402
295.402
295.402
295.402
295.402
295.402
295.402
295.402
295.402
295.402
295.402
295.402
295.402
295.402
295.402
295.402
295.402
295.402
295.402
295.402
295.402
295.402
295.402
295.402
295.402
295.402
295.402
295.402
295.402
295.402
295.402
295.402
295.402
295.402
295.402
295.402
295.402
295.402
295.595
295.595
295.594
295.592
295.59
295.587
295.583
295.579
295.574
295.569
295.563
295.556
295.549
295.541
295.533
295.523
295.514
295.504
295.493
295.482
295.47
295.458
295.445
295.432
295.418
295.404
295.389
295.374
295.358
295.342
295.326
295.309
295.292
295.275
295.257
295.239
295.22
295.201
295.182
295.162
295.142
295.122
295.102
295.095
295.095
295.095
295.095
295.095
295.095
295.095
295.095
295.095
295.095
295.095
295.095
295.095
295.095
295.095
295.095
295.095
295.095
295.095
295.095
295.095
295.095
295.095
295.095
295.095
295.095
295.095
295.095
295.095
295.095
295.095
295.095
295.095
295.095
295.095
295.095
295.095
295.095
295.095
295.095
295.095
295.095
295.095
295.095
295.095
295.095
295.095
295.095
295.095
295.095
295.095
295.095
295.095
295.095
295.095
295.095
295.095
295.095
295.095
295.095
295.095
295.095
295.095
295.095
295.095
295.095
295.095
295.095
295.095
295.095
295.095
295.095
295.095
295.095
295.095
295.095
295.095
295.095
295.095
295.095
295.095
295.095
295.095
295.095
295.095
295.095
295.095
295.095
295.095
295.095
295.095
295.095
295.095
295.095
295.095
295.095
295.095
295.095
295.095
295.095
295.095
295.095
295.095
295.095
295.095
295.095
295.095
295.095
295.095
295.095
295.095
295.095
295.095
295.095
295.095
295.095
295.095
295.32
295.319
295.318
295.317
295.314
295.311
295.308
295.303
295.299
295.293
295.287
295.28
295.273
295.265
295.256
295.247
295.237
295.227
295.216
295.204
295.192
295.18
295.167
295.153
295.139
295.125
295.11
295.095
295.079
295.063
295.046
295.029
295.012
294.994
294.976
294.957
294.938
294.919
294.9
294.88
294.86
294.839
294.819
294.798
294.788
294.788
294.788
294.788
294.788
294.788
294.788
294.788
294.788
294.788
294.788
294.788
294.788
294.788
294.788
294.788
294.788
294.788
294.788
294.788
294.788
294.788
294.788
294.788
294.788
294.788
294.788
294.788
294.788
294.788
294.788
294.788
294.788
294.788
294.788
294.788
294.788
294.788
294.788
294.788
294.788
294.788
294.788
294.788
294.788
294.788
294.788
294.788
294.788
294.788
294.788
294.788
294.788
294.788
294.788
294.788
294.788
294.788
294.788
294.788
294.788
294.788
294.788
294.788
294.788
294.788
294.788
294.788
294.788
294.788
294.788
294.788
294.788
294.788
294.788
294.788
294.788
294.788
294.788
294.788
294.788
294.788
294.788
294.788
294.788
294.788
294.788
294.788
294.788
294.788
294.788
294.788
294.788
294.788
294.788
294.788
294.788
294.788
294.788
294.788
294.788
294.788
294.788
294.788
294.788
294.788
294.788
294.788
294.788
294.788
294.788
294.788
294.788
294.788
294.788
294.788
295.044
295.044
295.043
295.041
295.039
295.036
295.032
295.028
295.023
295.017
295.011
295.004
294.996
294.988
294.979
294.97
294.96
294.949
294.938
294.927
294.914
294.902
294.888
294.875
294.86
294.846
294.831
294.815
294.799
294.783
294.766
294.748
294.731
294.713
294.694
294.676
294.656
294.637
294.617
294.597
294.577
294.556
294.535
294.514
294.493
294.482
294.482
294.482
294.482
294.482
294.482
294.482
294.482
294.482
294.482
294.482
294.482
294.482
294.482
294.482
294.482
294.482
294.482
294.482
294.482
294.482
294.482
294.482
294.482
294.482
294.482
294.482
294.482
294.482
294.482
294.482
294.482
294.482
294.482
294.482
294.482
294.482
294.482
294.482
294.482
294.482
294.482
294.482
294.482
294.482
294.482
294.482
294.482
294.482
294.482
294.482
294.482
294.482
294.482
294.482
294.482
294.482
294.482
294.482
294.482
294.482
294.482
294.482
294.482
294.482
294.482
294.482
294.482
294.482
294.482
294.482
294.482
294.482
294.482
294.482
294.482
294.482
294.482
294.482
294.482
294.482
294.482
294.482
294.482
294.482
294.482
294.482
294.482
294.482
294.482
294.482
294.482
294.482
294.482
294.482
294.482
294.482
294.482
294.482
294.482
294.482
294.482
294.482
294.482
294.482
294.482
294.482
294.482
294.482
294.482
294.482
294.482
294.482
294.482
294.482
294.769
294.769
294.768
294.766
294.764
294.76
294.757
294.752
294.747
294.741
294.735
294.728
294.72
294.712
294.703
294.693
294.683
294.672
294.661
294.649
294.636
294.623
294.61
294.596
294.582
294.567
294.551
294.535
294.519
294.502
294.485
294.468
294.45
294.431
294.413
294.394
294.374
294.355
294.335
294.314
294.294
294.273
294.252
294.23
294.209
294.187
294.175
294.175
294.175
294.175
294.175
294.175
294.175
294.175
294.175
294.175
294.175
294.175
294.175
294.175
294.175
294.175
294.175
294.175
294.175
294.175
294.175
294.175
294.175
294.175
294.175
294.175
294.175
294.175
294.175
294.175
294.175
294.175
294.175
294.175
294.175
294.175
294.175
294.175
294.175
294.175
294.175
294.175
294.175
294.175
294.175
294.175
294.175
294.175
294.175
294.175
294.175
294.175
294.175
294.175
294.175
294.175
294.175
294.175
294.175
294.175
294.175
294.175
294.175
294.175
294.175
294.175
294.175
294.175
294.175
294.175
294.175
294.175
294.175
294.175
294.175
294.175
294.175
294.175
294.175
294.175
294.175
294.175
294.175
294.175
294.175
294.175
294.175
294.175
294.175
294.175
294.175
294.175
294.175
294.175
294.175
294.175
294.175
294.175
294.175
294.175
294.175
294.175
294.175
294.175
294.175
294.175
294.175
294.175
294.175
294.175
294.175
294.175
294.175
294.175
294.494
294.493
294.492
294.491
294.488
294.485
294.481
294.476
294.471
294.465
294.459
294.451
294.444
294.435
294.426
294.416
294.406
294.395
294.383
294.371
294.358
294.345
294.331
294.317
294.303
294.287
294.272
294.256
294.239
294.222
294.205
294.187
294.169
294.15
294.131
294.112
294.092
294.072
294.052
294.031
294.01
293.989
293.968
293.946
293.924
293.902
293.88
293.869
293.869
293.869
293.869
293.869
293.869
293.869
293.869
293.869
293.869
293.869
293.869
293.869
293.869
293.869
293.869
293.869
293.869
293.869
293.869
293.869
293.869
293.869
293.869
293.869
293.869
293.869
293.869
293.869
293.869
293.869
293.869
293.869
293.869
293.869
293.869
293.869
293.869
293.869
293.869
293.869
293.869
293.869
293.869
293.869
293.869
293.869
293.869
293.869
293.869
293.869
293.869
293.869
293.869
293.869
293.869
293.869
293.869
293.869
293.869
293.869
293.869
293.869
293.869
293.869
293.869
293.869
293.869
293.869
293.869
293.869
293.869
293.869
293.869
293.869
293.869
293.869
293.869
293.869
293.869
293.869
293.869
293.869
293.869
293.869
293.869
293.869
293.869
293.869
293.869
293.869
293.869
293.869
293.869
293.869
293.869
293.869
293.869
293.869
293.869
293.869
293.869
293.869
293.869
293.869
293.869
293.869
293.869
293.869
293.869
293.869
293.869
293.869
294.218
294.218
294.217
294.215
294.213
294.209
294.205
294.201
294.195
294.189
294.183
294.175
294.167
294.158
294.149
294.139
294.128
294.117
294.105
294.093
294.08
294.067
294.053
294.038
294.023
294.008
293.992
293.975
293.959
293.941
293.924
293.906
293.887
293.868
293.849
293.83
293.81
293.789
293.769
293.748
293.727
293.706
293.684
293.662
293.64
293.617
293.594
293.571
293.562
293.562
293.562
293.562
293.562
293.562
293.562
293.562
293.562
293.562
293.562
293.562
293.562
293.562
293.562
293.562
293.562
293.562
293.562
293.562
293.562
293.562
293.562
293.562
293.562
293.562
293.562
293.562
293.562
293.562
293.562
293.562
293.562
293.562
293.562
293.562
293.562
293.562
293.562
293.562
293.562
293.562
293.562
293.562
293.562
293.562
293.562
293.562
293.562
293.562
293.562
293.562
293.562
293.562
293.562
293.562
293.562
293.562
293.562
293.562
293.562
293.562
293.562
293.562
293.562
293.562
293.562
293.562
293.562
293.562
293.562
293.562
293.562
293.562
293.562
293.562
293.562
293.562
293.562
293.562
293.562
293.562
293.562
293.562
293.562
293.562
293.562
293.562
293.562
293.562
293.562
293.562
293.562
293.562
293.562
293.562
293.562
293.562
293.562
293.562
293.562
293.562
293.562
293.562
293.562
293.562
293.562
293.562
293.562
293.562
293.562
293.562
293.943
293.943
293.942
293.94
293.937
293.934
293.93
293.925
293.92
293.913
293.906
293.899
293.891
293.882
293.872
293.862
293.851
293.84
293.828
293.815
293.802
293.788
293.774
293.759
293.744
293.728
293.712
293.695
293.678
293.661
293.643
293.624
293.606
293.586
293.567
293.547
293.527
293.506
293.486
293.465
293.443
293.421
293.399
293.377
293.355
293.332
293.309
293.286
293.262
293.256
293.256
293.256
293.256
293.256
293.256
293.256
293.256
293.256
293.256
293.256
293.256
293.256
293.256
293.256
293.256
293.256
293.256
293.256
293.256
293.256
293.256
293.256
293.256
293.256
293.256
293.256
293.256
293.256
293.256
293.256
293.256
293.256
293.256
293.256
293.256
293.256
293.256
293.256
293.256
293.256
293.256
293.256
293.256
293.256
293.256
293.256
293.256
293.256
293.256
293.256
293.256
293.256
293.256
293.256
293.256
293.256
293.256
293.256
293.256
293.256
293.256
293.256
293.256
293.256
293.256
293.256
293.256
293.256
293.256
293.256
293.256
293.256
293.256
293.256
293.256
293.256
293.256
293.256
293.256
293.256
293.256
293.256
293.256
293.256
293.256
293.256
293.256
293.256
293.256
293.256
293.256
293.256
293.256
293.256
293.256
293.256
293.256
293.256
293.256
293.256
293.256
293.256
293.256
293.256
293.256
293.256
293.256
293.256
293.256
293.256
293.668
293.667
293.666
293.664
293.662
293.658
293.654
293.649
293.644
293.637
293.63
293.623
293.614
293.605
293.595
293.585
293.574
293.562
293.55
293.537
293.524
293.51
293.495
293.48
293.464
293.448
293.432
293.415
293.398
293.38
293.361
293.343
293.324
293.304
293.285
293.264
293.244
293.223
293.202
293.181
293.159
293.137
293.115
293.092
293.07
293.047
293.023
293
292.976
292.952
292.949
292.949
292.949
292.949
292.949
292.949
292.949
292.949
292.949
292.949
292.949
292.949
292.949
292.949
292.949
292.949
292.949
292.949
292.949
292.949
292.949
292.949