/*--------------------------------*- C++ -*----------------------------------*\
| =========                 |                                                 |
| \\      /  F ield         | OpenFOAM: The Open Source CFD Toolbox           |
|  \\    /   O peration     | Version:  v2012                                 |
|   \\  /    A nd           | Website:  www.openfoam.com                      |
|    \\/     M anipulation  |                                                 |
\*---------------------------------------------------------------------------*/
FoamFile
{
    version     2.0;
    format      ascii;
    class       volScalarField;
    location    "0";
    object      ph_rgh;
}
// * * * * * * * * * * * * * * * * * * * * * * * * * * * * * * * * * * * * * //

dimensions      [1 -1 -2 0 0 0 0];


internalField   nonuniform List<scalar> 
800
(
-57874.9
-57874.5
-57873.6
-57872.4
-57870.9
-57869.4
-57867.9
-57866.5
-57865.3
-57864.3
-57863.3
-57862.6
-57861.9
-57861.4
-57860.9
-57860.6
-57860.3
-57860.1
-57860
-57859.9
-57887.9
-57887.4
-57886.4
-57884.8
-57883
-57881.4
-57879.8
-57878.4
-57877.2
-57876.2
-57875.2
-57874.5
-57873.8
-57873.3
-57872.9
-57872.5
-57872.3
-57872.1
-57871.9
-57871.9
-57925.9
-57925.4
-57924.1
-57922.3
-57920
-57917.2
-57915.3
-57913.8
-57912.6
-57911.5
-57910.6
-57909.9
-57909.3
-57908.8
-57908.4
-57908.1
-57907.8
-57907.6
-57907.5
-57907.4
-57988.2
-57987.6
-57986.1
-57983.8
-57981
-57977.7
-57974
-57972
-57970.8
-57969.8
-57969
-57968.3
-57967.7
-57967.2
-57966.9
-57966.6
-57966.3
-57966.2
-57966.1
-57966
-58074.1
-58073.3
-58071.4
-58068.5
-58065
-58061
-58056.7
-58052.4
-58051.3
-58050.3
-58049.6
-58049
-58048.5
-58048.1
-58047.8
-58047.5
-58047.3
-58047.2
-58047.1
-58047
-58183
-58181.9
-58179.3
-58175.6
-58171.3
-58166.5
-58161.4
-58156.2
-58153.4
-58152.6
-58152
-58151.5
-58151.1
-58150.8
-58150.5
-58150.3
-58150.1
-58150
-58150
-58149.9
-58314.1
-58312.5
-58308.8
-58304
-58298.6
-58293
-58287.2
-58281.2
-58276.6
-58276
-58275.6
-58275.2
-58275
-58274.7
-58274.5
-58274.4
-58274.3
-58274.2
-58274.1
-58274.1
-58466.7
-58463.9
-58458.4
-58452.4
-58446
-58439.6
-58433.1
-58426.6
-58420.3
-58420
-58419.8
-58419.7
-58419.5
-58419.4
-58419.3
-58419.2
-58419.1
-58419
-58419
-58419
-58640.3
-58633.2
-58626.2
-58619.2
-58612.3
-58605.3
-58598.3
-58591.2
-58584.1
-58584.2
-58584.2
-58584.3
-58584.2
-58584.2
-58584.2
-58584.2
-58584.1
-58584.1
-58584.1
-58584.1
-58819.1
-58816.2
-58810.1
-58803.4
-58796.3
-58789.1
-58781.9
-58774.5
-58767.7
-58768
-58768.3
-58768.5
-58768.6
-58768.7
-58768.8
-58768.8
-58768.8
-58768.9
-58768.9
-58768.9
-59016.2
-59014.5
-59010.1
-59004.1
-58997.5
-58990.4
-58983.2
-58975.7
-58970.3
-58971
-58971.5
-58971.8
-58972.1
-58972.3
-58972.4
-58972.5
-58972.6
-58972.7
-58972.7
-58972.7
-59231
-59229.9
-59226.4
-59221.4
-59215.3
-59208.7
-59201.6
-59194.3
-59191.8
-59192.7
-59193.3
-59193.8
-59194.2
-59194.5
-59194.7
-59194.8
-59194.9
-59195
-59195.1
-59195.1
-59463
-59462.2
-59459.4
-59455.1
-59449.7
-59443.5
-59436.8
-59430.2
-59431.5
-59432.6
-59433.3
-59433.9
-59434.4
-59434.7
-59435
-59435.2
-59435.3
-59435.4
-59435.5
-59435.5
-59711.8
-59711.2
-59708.9
-59705.1
-59700.3
-59694.6
-59688.2
-59687.8
-59689.1
-59690.1
-59690.9
-59691.6
-59692.1
-59692.5
-59692.8
-59693
-59693.2
-59693.3
-59693.4
-59693.5
-59976.9
-59976.4
-59974.4
-59971.1
-59966.7
-59961.4
-59961
-59962.5
-59963.7
-59964.7
-59965.6
-59966.2
-59966.8
-59967.2
-59967.5
-59967.8
-59968
-59968.1
-59968.2
-59968.3
-60257.9
-60257.5
-60255.7
-60252.8
-60249.5
-60251
-60252.5
-60253.9
-60255
-60255.9
-60256.8
-60257.4
-60258
-60258.4
-60258.7
-60259
-60259.2
-60259.4
-60259.5
-60259.5
-60554.2
-60554.6
-60555.4
-60556.4
-60557.7
-60558.9
-60560.2
-60561.3
-60562.3
-60563.2
-60564
-60564.6
-60565.1
-60565.6
-60565.9
-60566.2
-60566.4
-60566.6
-60566.7
-60566.7
-60878.6
-60878.9
-60879.5
-60880.3
-60881.2
-60882.2
-60883.3
-60884.2
-60885.1
-60885.9
-60886.6
-60887.2
-60887.7
-60888.1
-60888.5
-60888.8
-60889
-60889.1
-60889.2
-60889.3
-61217.4
-61217.6
-61218.1
-61218.7
-61219.5
-61220.3
-61221.1
-61222
-61222.7
-61223.4
-61224.1
-61224.6
-61225.1
-61225.5
-61225.8
-61226.1
-61226.3
-61226.5
-61226.6
-61226.6
-61570.4
-61570.6
-61570.9
-61571.4
-61572
-61572.7
-61573.4
-61574.1
-61574.8
-61575.4
-61575.9
-61576.5
-61576.9
-61577.3
-61577.6
-61577.8
-61578
-61578.2
-61578.3
-61578.3
-61936.9
-61937.1
-61937.4
-61937.8
-61938.3
-61938.8
-61939.4
-61940
-61940.6
-61941.1
-61941.6
-61942
-61942.4
-61942.8
-61943.1
-61943.3
-61943.5
-61943.7
-61943.8
-61943.8
-62316.7
-62316.8
-62317
-62317.3
-62317.7
-62318.2
-62318.7
-62319.2
-62319.7
-62320.2
-62320.6
-62321
-62321.4
-62321.7
-62322
-62322.2
-62322.4
-62322.5
-62322.6
-62322.6
-62709
-62709.1
-62709.3
-62709.5
-62709.9
-62710.3
-62710.7
-62711.1
-62711.5
-62711.9
-62712.3
-62712.7
-62713
-62713.3
-62713.5
-62713.7
-62713.9
-62714
-62714.1
-62714.2
-63113.5
-63113.6
-63113.8
-63114
-63114.3
-63114.6
-63114.9
-63115.3
-63115.7
-63116
-63116.4
-63116.7
-63117
-63117.2
-63117.4
-63117.6
-63117.8
-63117.9
-63118
-63118
-63529.7
-63529.8
-63529.9
-63530.1
-63530.3
-63530.6
-63530.9
-63531.2
-63531.5
-63531.8
-63532.1
-63532.4
-63532.6
-63532.9
-63533.1
-63533.2
-63533.4
-63533.5
-63533.5
-63533.6
-63957.1
-63957.1
-63957.2
-63957.4
-63957.6
-63957.8
-63958.1
-63958.3
-63958.6
-63958.9
-63959.1
-63959.4
-63959.6
-63959.8
-63960
-63960.2
-63960.3
-63960.4
-63960.4
-63960.5
-64395.1
-64395.2
-64395.2
-64395.4
-64395.5
-64395.7
-64395.9
-64396.2
-64396.4
-64396.6
-64396.9
-64397.1
-64397.3
-64397.5
-64397.6
-64397.8
-64397.9
-64398
-64398
-64398.1
-64843.4
-64843.4
-64843.5
-64843.6
-64843.7
-64843.9
-64844.1
-64844.3
-64844.5
-64844.7
-64844.9
-64845
-64845.2
-64845.4
-64845.5
-64845.7
-64845.8
-64845.8
-64845.9
-64845.9
-65301.4
-65301.4
-65301.5
-65301.6
-65301.7
-65301.8
-65302
-65302.2
-65302.3
-65302.5
-65302.7
-65302.9
-65303
-65303.2
-65303.3
-65303.4
-65303.5
-65303.6
-65303.6
-65303.6
-65768.6
-65768.7
-65768.7
-65768.8
-65768.9
-65769
-65769.1
-65769.3
-65769.4
-65769.6
-65769.7
-65769.9
-65770
-65770.2
-65770.3
-65770.4
-65770.5
-65770.5
-65770.6
-65770.6
-66244.7
-66244.7
-66244.8
-66244.9
-66244.9
-66245
-66245.2
-66245.3
-66245.4
-66245.6
-66245.7
-66245.8
-66245.9
-66246.1
-66246.2
-66246.2
-66246.3
-66246.4
-66246.4
-66246.4
-66729
-66729
-66729.1
-66729.1
-66729.2
-66729.3
-66729.4
-66729.5
-66729.6
-66729.8
-66729.9
-66730
-66730.1
-66730.2
-66730.3
-66730.4
-66730.4
-66730.5
-66730.5
-66730.5
-67221.3
-67221.3
-67221.3
-67221.4
-67221.4
-67221.5
-67221.6
-67221.7
-67221.8
-67221.9
-67222
-67222.1
-67222.2
-67222.3
-67222.4
-67222.4
-67222.5
-67222.5
-67222.6
-67222.6
-67720.8
-67720.8
-67720.9
-67720.9
-67721
-67721
-67721.1
-67721.2
-67721.3
-67721.4
-67721.5
-67721.5
-67721.6
-67721.7
-67721.8
-67721.8
-67721.9
-67721.9
-67722
-67722
-68227.3
-68227.4
-68227.4
-68227.4
-68227.5
-68227.5
-68227.6
-68227.7
-68227.8
-68227.8
-68227.9
-68228
-68228.1
-68228.1
-68228.2
-68228.3
-68228.3
-68228.4
-68228.4
-68228.4
-68740.3
-68740.3
-68740.3
-68740.3
-68740.4
-68740.4
-68740.5
-68740.6
-68740.6
-68740.7
-68740.8
-68740.8
-68740.9
-68741
-68741
-68741.1
-68741.1
-68741.2
-68741.2
-68741.2
-69259.3
-69259.3
-69259.3
-69259.3
-69259.4
-69259.4
-69259.5
-69259.5
-69259.6
-69259.7
-69259.7
-69259.8
-69259.9
-69259.9
-69260
-69260
-69260.1
-69260.1
-69260.1
-69260.1
-69783.8
-69783.8
-69783.8
-69783.8
-69783.9
-69783.9
-69784
-69784
-69784.1
-69784.1
-69784.2
-69784.3
-69784.3
-69784.4
-69784.4
-69784.5
-69784.5
-69784.5
-69784.5
-69784.6
-70313.5
-70313.5
-70313.5
-70313.5
-70313.5
-70313.6
-70313.6
-70313.7
-70313.7
-70313.8
-70313.9
-70313.9
-70314
-70314
-70314.1
-70314.1
-70314.1
-70314.2
-70314.2
-70314.2
-70847.8
-70847.8
-70847.9
-70847.9
-70847.9
-70848
-70848
-70848.1
-70848.1
-70848.2
-70848.2
-70848.3
-70848.3
-70848.4
-70848.4
-70848.5
-70848.5
-70848.5
-70848.5
-70848.5
)
;

boundaryField
{
    top
    {
        type            fixedFluxPressure;
        gradient        nonuniform List<scalar> 
20
(
-2.18649
-2.18649
-2.18649
-2.18649
-2.18649
-2.18648
-2.18648
-2.18648
-2.18647
-2.18647
-2.18646
-2.18646
-2.18646
-2.18645
-2.18645
-2.18645
-2.18644
-2.18644
-2.18644
-2.18644
)
;
        value           nonuniform List<scalar> 
20
(
-71121.1
-71121.2
-71121.2
-71121.2
-71121.2
-71121.3
-71121.3
-71121.4
-71121.4
-71121.5
-71121.5
-71121.6
-71121.6
-71121.7
-71121.7
-71121.8
-71121.8
-71121.8
-71121.8
-71121.8
)
;
    }
    bottom
    {
        type            fixedFluxPressure;
        gradient        nonuniform List<scalar> 
20
(
-0.0482576
-0.0482581
-0.0482591
-0.0482605
-0.0482622
-0.0482639
-0.0482656
-0.0482672
-0.0482686
-0.0482698
-0.0482708
-0.0482717
-0.0482725
-0.0482731
-0.0482736
-0.048274
-0.0482743
-0.0482746
-0.0482747
-0.0482748
)
;
        value           nonuniform List<scalar> 
20
(
-57881
-57880.5
-57879.6
-57878.4
-57876.9
-57875.4
-57873.9
-57872.6
-57871.4
-57870.3
-57869.4
-57868.6
-57867.9
-57867.4
-57867
-57866.6
-57866.3
-57866.1
-57866
-57865.9
)
;
    }
    left
    {
        type            fixedFluxPressure;
        gradient        uniform -0;
        value           nonuniform List<scalar> 
40
(
-57874.9
-57887.9
-57925.9
-57988.2
-58074.1
-58183
-58314.1
-58466.7
-58640.3
-58819.1
-59016.2
-59231
-59463
-59711.8
-59976.9
-60257.9
-60554.2
-60878.6
-61217.4
-61570.4
-61936.9
-62316.7
-62709
-63113.5
-63529.7
-63957.1
-64395.1
-64843.4
-65301.4
-65768.6
-66244.7
-66729
-67221.3
-67720.8
-68227.3
-68740.3
-69259.3
-69783.8
-70313.5
-70847.8
)
;
    }
    right
    {
        type            fixedFluxPressure;
        gradient        uniform -0;
        value           nonuniform List<scalar> 
40
(
-57859.9
-57871.9
-57907.4
-57966
-58047
-58149.9
-58274.1
-58419
-58584.1
-58768.9
-58972.7
-59195.1
-59435.5
-59693.5
-59968.3
-60259.5
-60566.7
-60889.3
-61226.6
-61578.3
-61943.8
-62322.6
-62714.2
-63118
-63533.6
-63960.5
-64398.1
-64845.9
-65303.6
-65770.6
-66246.4
-66730.5
-67222.6
-67722
-68228.4
-68741.2
-69260.1
-69784.6
-70314.2
-70848.5
)
;
    }
    frontandback
    {
        type            empty;
    }
}


// ************************************************************************* //
