/*--------------------------------*- C++ -*----------------------------------*\
| =========                 |                                                 |
| \\      /  F ield         | OpenFOAM: The Open Source CFD Toolbox           |
|  \\    /   O peration     | Version:  v2012                                 |
|   \\  /    A nd           | Website:  www.openfoam.com                      |
|    \\/     M anipulation  |                                                 |
\*---------------------------------------------------------------------------*/
FoamFile
{
    version     2.0;
    format      ascii;
    class       volScalarField;
    location    "0";
    object      T;
}
// * * * * * * * * * * * * * * * * * * * * * * * * * * * * * * * * * * * * * //

dimensions      [0 0 0 1 0 0 0];


internalField   nonuniform List<scalar> 
800
(
300
300
300
300
300
300
300
300
300
300
300
300
300
300
300
300
300
300
300
300
297.798
297.78
297.727
297.644
297.548
297.548
297.548
297.548
297.548
297.548
297.548
297.548
297.548
297.548
297.548
297.548
297.548
297.548
297.548
297.548
295.595
295.574
295.514
295.418
295.292
295.142
295.095
295.095
295.095
295.095
295.095
295.095
295.095
295.095
295.095
295.095
295.095
295.095
295.095
295.095
293.392
293.368
293.296
293.185
293.042
292.875
292.69
292.642
292.642
292.642
292.642
292.642
292.642
292.642
292.642
292.642
292.642
292.642
292.642
292.642
291.19
291.159
291.072
290.94
290.776
290.589
290.387
290.19
290.19
290.19
290.19
290.19
290.19
290.19
290.19
290.19
290.19
290.19
290.19
290.19
288.988
288.947
288.836
288.677
288.488
288.28
288.06
287.834
287.738
287.738
287.738
287.738
287.738
287.738
287.738
287.738
287.738
287.738
287.738
287.738
286.785
286.726
286.578
286.384
286.167
285.939
285.704
285.465
285.285
285.285
285.285
285.285
285.285
285.285
285.285
285.285
285.285
285.285
285.285
285.285
284.582
284.479
284.273
284.042
283.802
283.558
283.312
283.065
282.832
282.832
282.832
282.832
282.832
282.832
282.832
282.832
282.832
282.832
282.832
282.832
282.38
282.13
281.88
281.63
281.38
281.13
280.88
280.63
280.38
280.38
280.38
280.38
280.38
280.38
280.38
280.38
280.38
280.38
280.38
280.38
279.678
279.574
279.368
279.137
278.897
278.653
278.407
278.16
277.928
277.928
277.928
277.928
277.928
277.928
277.928
277.928
277.928
277.928
277.928
277.928
276.975
276.916
276.768
276.574
276.357
276.129
275.894
275.655
275.475
275.475
275.475
275.475
275.475
275.475
275.475
275.475
275.475
275.475
275.475
275.475
274.272
274.232
274.121
273.962
273.772
273.565
273.345
273.119
273.022
273.022
273.022
273.022
273.022
273.022
273.022
273.022
273.022
273.022
273.022
273.022
271.57
271.539
271.452
271.32
271.156
270.969
270.767
270.57
270.57
270.57
270.57
270.57
270.57
270.57
270.57
270.57
270.57
270.57
270.57
270.57
268.868
268.843
268.771
268.66
268.517
268.35
268.165
268.118
268.118
268.118
268.118
268.118
268.118
268.118
268.118
268.118
268.118
268.118
268.118
268.118
266.165
266.144
266.084
265.988
265.862
265.712
265.665
265.665
265.665
265.665
265.665
265.665
265.665
265.665
265.665
265.665
265.665
265.665
265.665
265.665
263.462
263.445
263.392
263.309
263.212
263.212
263.212
263.212
263.212
263.212
263.212
263.212
263.212
263.212
263.212
263.212
263.212
263.212
263.212
263.212
260.76
260.76
260.76
260.76
260.76
260.76
260.76
260.76
260.76
260.76
260.76
260.76
260.76
260.76
260.76
260.76
260.76
260.76
260.76
260.76
258.308
258.308
258.308
258.308
258.308
258.308
258.308
258.308
258.308
258.308
258.308
258.308
258.308
258.308
258.308
258.308
258.308
258.308
258.308
258.308
255.855
255.855
255.855
255.855
255.855
255.855
255.855
255.855
255.855
255.855
255.855
255.855
255.855
255.855
255.855
255.855
255.855
255.855
255.855
255.855
253.403
253.403
253.403
253.403
253.403
253.403
253.403
253.403
253.403
253.403
253.403
253.403
253.403
253.403
253.403
253.403
253.403
253.403
253.403
253.403
250.95
250.95
250.95
250.95
250.95
250.95
250.95
250.95
250.95
250.95
250.95
250.95
250.95
250.95
250.95
250.95
250.95
250.95
250.95
250.95
248.498
248.498
248.498
248.498
248.498
248.498
248.498
248.498
248.498
248.498
248.498
248.498
248.498
248.498
248.498
248.498
248.498
248.498
248.498
248.498
246.045
246.045
246.045
246.045
246.045
246.045
246.045
246.045
246.045
246.045
246.045
246.045
246.045
246.045
246.045
246.045
246.045
246.045
246.045
246.045
243.593
243.593
243.593
243.593
243.593
243.593
243.593
243.593
243.593
243.593
243.593
243.593
243.593
243.593
243.593
243.593
243.593
243.593
243.593
243.593
241.14
241.14
241.14
241.14
241.14
241.14
241.14
241.14
241.14
241.14
241.14
241.14
241.14
241.14
241.14
241.14
241.14
241.14
241.14
241.14
238.688
238.688
238.688
238.688
238.688
238.688
238.688
238.688
238.688
238.688
238.688
238.688
238.688
238.688
238.688
238.688
238.688
238.688
238.688
238.688
236.235
236.235
236.235
236.235
236.235
236.235
236.235
236.235
236.235
236.235
236.235
236.235
236.235
236.235
236.235
236.235
236.235
236.235
236.235
236.235
233.782
233.782
233.782
233.782
233.782
233.782
233.782
233.782
233.782
233.782
233.782
233.782
233.782
233.782
233.782
233.782
233.782
233.782
233.782
233.782
231.33
231.33
231.33
231.33
231.33
231.33
231.33
231.33
231.33
231.33
231.33
231.33
231.33
231.33
231.33
231.33
231.33
231.33
231.33
231.33
228.877
228.877
228.877
228.877
228.877
228.877
228.877
228.877
228.877
228.877
228.877
228.877
228.877
228.877
228.877
228.877
228.877
228.877
228.877
228.877
226.425
226.425
226.425
226.425
226.425
226.425
226.425
226.425
226.425
226.425
226.425
226.425
226.425
226.425
226.425
226.425
226.425
226.425
226.425
226.425
223.972
223.972
223.972
223.972
223.972
223.972
223.972
223.972
223.972
223.972
223.972
223.972
223.972
223.972
223.972
223.972
223.972
223.972
223.972
223.972
221.52
221.52
221.52
221.52
221.52
221.52
221.52
221.52
221.52
221.52
221.52
221.52
221.52
221.52
221.52
221.52
221.52
221.52
221.52
221.52
219.067
219.067
219.067
219.067
219.067
219.067
219.067
219.067
219.067
219.067
219.067
219.067
219.067
219.067
219.067
219.067
219.067
219.067
219.067
219.067
216.615
216.615
216.615
216.615
216.615
216.615
216.615
216.615
216.615
216.615
216.615
216.615
216.615
216.615
216.615
216.615
216.615
216.615
216.615
216.615
214.162
214.162
214.162
214.162
214.162
214.162
214.162
214.162
214.162
214.162
214.162
214.162
214.162
214.162
214.162
214.162
214.162
214.162
214.162
214.162
211.71
211.71
211.71
211.71
211.71
211.71
211.71
211.71
211.71
211.71
211.71
211.71
211.71
211.71
211.71
211.71
211.71
211.71
211.71
211.71
209.257
209.257
209.257
209.257
209.257
209.257
209.257
209.257
209.257
209.257
209.257
209.257
209.257
209.257
209.257
209.257
209.257
209.257
209.257
209.257
206.805
206.805
206.805
206.805
206.805
206.805
206.805
206.805
206.805
206.805
206.805
206.805
206.805
206.805
206.805
206.805
206.805
206.805
206.805
206.805
204.353
204.353
204.353
204.353
204.353
204.353
204.353
204.353
204.353
204.353
204.353
204.353
204.353
204.353
204.353
204.353
204.353
204.353
204.353
204.353
)
;

boundaryField
{
top
    {
        type            fixedGradient;
        gradient        uniform -0.00981;
    }
bottom
    {
     	type            fixedGradient;
        gradient        uniform 0.00981;
    }
    left
    {
     	type            zeroGradient;
    }
    right
    {
     	type            zeroGradient;
    }
    frontandback
    {
     	type            empty;
    }
}


// ************************************************************************* //
