/*--------------------------------*- C++ -*----------------------------------*\
| =========                 |                                                 |
| \\      /  F ield         | OpenFOAM: The Open Source CFD Toolbox           |
|  \\    /   O peration     | Version:  v2012                                 |
|   \\  /    A nd           | Website:  www.openfoam.com                      |
|    \\/     M anipulation  |                                                 |
\*---------------------------------------------------------------------------*/
FoamFile
{
    version     2.0;
    format      ascii;
    class       volScalarField;
    location    "0";
    object      ph_rgh;
}
// * * * * * * * * * * * * * * * * * * * * * * * * * * * * * * * * * * * * * //

dimensions      [1 -1 -2 0 0 0 0];


internalField   nonuniform List<scalar> 
12800
(
-36799.6
-36799.5
-36799.4
-36799.2
-36799
-36798.8
-36798.5
-36798.1
-36797.7
-36797.3
-36796.8
-36796.3
-36795.8
-36795.3
-36794.7
-36794.1
-36793.6
-36793
-36792.4
-36791.8
-36791.2
-36790.6
-36790
-36789.5
-36788.9
-36788.4
-36787.8
-36787.3
-36786.8
-36786.3
-36785.8
-36785.4
-36784.9
-36784.5
-36784.1
-36783.7
-36783.3
-36782.9
-36782.6
-36782.2
-36781.9
-36781.6
-36781.3
-36781
-36780.7
-36780.4
-36780.2
-36779.9
-36779.7
-36779.5
-36779.3
-36779.1
-36778.9
-36778.7
-36778.5
-36778.4
-36778.2
-36778.1
-36777.9
-36777.8
-36777.7
-36777.6
-36777.5
-36777.4
-36777.3
-36777.2
-36777.1
-36777
-36776.9
-36776.9
-36776.8
-36776.8
-36776.7
-36776.7
-36776.7
-36776.6
-36776.6
-36776.6
-36776.6
-36776.6
-36800.8
-36800.7
-36800.6
-36800.5
-36800.3
-36800
-36799.7
-36799.3
-36798.9
-36798.5
-36798
-36797.5
-36797
-36796.4
-36795.9
-36795.3
-36794.7
-36794.1
-36793.5
-36792.9
-36792.3
-36791.7
-36791.2
-36790.6
-36790
-36789.5
-36789
-36788.4
-36787.9
-36787.4
-36787
-36786.5
-36786.1
-36785.6
-36785.2
-36784.8
-36784.4
-36784
-36783.7
-36783.3
-36783
-36782.7
-36782.4
-36782.1
-36781.8
-36781.6
-36781.3
-36781.1
-36780.8
-36780.6
-36780.4
-36780.2
-36780
-36779.8
-36779.7
-36779.5
-36779.3
-36779.2
-36779.1
-36778.9
-36778.8
-36778.7
-36778.6
-36778.5
-36778.4
-36778.3
-36778.2
-36778.1
-36778.1
-36778
-36778
-36777.9
-36777.9
-36777.8
-36777.8
-36777.8
-36777.7
-36777.7
-36777.7
-36777.7
-36804.4
-36804.4
-36804.3
-36804.1
-36803.9
-36803.6
-36803.3
-36802.9
-36802.5
-36802
-36801.5
-36800.9
-36800.4
-36799.8
-36799.3
-36798.7
-36798.1
-36797.5
-36796.9
-36796.3
-36795.7
-36795.1
-36794.5
-36794
-36793.4
-36792.9
-36792.3
-36791.8
-36791.3
-36790.8
-36790.3
-36789.9
-36789.4
-36789
-36788.6
-36788.2
-36787.8
-36787.4
-36787.1
-36786.7
-36786.4
-36786.1
-36785.8
-36785.5
-36785.2
-36784.9
-36784.7
-36784.4
-36784.2
-36784
-36783.8
-36783.6
-36783.4
-36783.2
-36783
-36782.9
-36782.7
-36782.6
-36782.4
-36782.3
-36782.2
-36782.1
-36782
-36781.9
-36781.8
-36781.7
-36781.6
-36781.5
-36781.5
-36781.4
-36781.3
-36781.3
-36781.2
-36781.2
-36781.2
-36781.1
-36781.1
-36781.1
-36781.1
-36781.1
-36810.5
-36810.4
-36810.3
-36810.1
-36809.9
-36809.6
-36809.3
-36808.9
-36808.5
-36808
-36807.4
-36806.9
-36806.2
-36805.6
-36804.9
-36804.4
-36803.8
-36803.2
-36802.5
-36801.9
-36801.3
-36800.7
-36800.2
-36799.6
-36799
-36798.5
-36797.9
-36797.4
-36796.9
-36796.4
-36795.9
-36795.5
-36795
-36794.6
-36794.2
-36793.8
-36793.4
-36793
-36792.6
-36792.3
-36792
-36791.7
-36791.4
-36791.1
-36790.8
-36790.5
-36790.3
-36790
-36789.8
-36789.6
-36789.4
-36789.2
-36789
-36788.8
-36788.6
-36788.5
-36788.3
-36788.2
-36788.1
-36787.9
-36787.8
-36787.7
-36787.6
-36787.5
-36787.4
-36787.3
-36787.2
-36787.1
-36787.1
-36787
-36787
-36786.9
-36786.9
-36786.8
-36786.8
-36786.8
-36786.7
-36786.7
-36786.7
-36786.7
-36818.8
-36818.8
-36818.7
-36818.5
-36818.3
-36818
-36817.6
-36817.2
-36816.8
-36816.3
-36815.7
-36815.1
-36814.5
-36813.8
-36813.1
-36812.3
-36811.6
-36811
-36810.4
-36809.8
-36809.2
-36808.6
-36808
-36807.4
-36806.8
-36806.3
-36805.7
-36805.2
-36804.7
-36804.2
-36803.7
-36803.3
-36802.8
-36802.4
-36802
-36801.6
-36801.2
-36800.8
-36800.5
-36800.1
-36799.8
-36799.5
-36799.2
-36798.9
-36798.6
-36798.4
-36798.1
-36797.9
-36797.6
-36797.4
-36797.2
-36797
-36796.8
-36796.7
-36796.5
-36796.3
-36796.2
-36796
-36795.9
-36795.8
-36795.6
-36795.5
-36795.4
-36795.3
-36795.2
-36795.1
-36795.1
-36795
-36794.9
-36794.9
-36794.8
-36794.8
-36794.7
-36794.7
-36794.6
-36794.6
-36794.6
-36794.6
-36794.6
-36794.6
-36829.6
-36829.5
-36829.4
-36829.2
-36829
-36828.7
-36828.3
-36827.9
-36827.5
-36826.9
-36826.4
-36825.8
-36825.1
-36824.4
-36823.6
-36822.8
-36822
-36821.2
-36820.5
-36819.9
-36819.2
-36818.6
-36818
-36817.4
-36816.9
-36816.3
-36815.7
-36815.2
-36814.7
-36814.2
-36813.7
-36813.3
-36812.8
-36812.4
-36812
-36811.6
-36811.2
-36810.8
-36810.5
-36810.1
-36809.8
-36809.5
-36809.2
-36808.9
-36808.6
-36808.4
-36808.1
-36807.9
-36807.7
-36807.5
-36807.2
-36807.1
-36806.9
-36806.7
-36806.5
-36806.4
-36806.2
-36806.1
-36805.9
-36805.8
-36805.7
-36805.6
-36805.5
-36805.4
-36805.3
-36805.2
-36805.1
-36805
-36805
-36804.9
-36804.9
-36804.8
-36804.8
-36804.7
-36804.7
-36804.7
-36804.6
-36804.6
-36804.6
-36804.6
-36842.7
-36842.6
-36842.5
-36842.3
-36842.1
-36841.7
-36841.4
-36840.9
-36840.5
-36839.9
-36839.3
-36838.7
-36838
-36837.2
-36836.5
-36835.6
-36834.8
-36833.9
-36833
-36832.1
-36831.5
-36830.9
-36830.2
-36829.7
-36829.1
-36828.5
-36827.9
-36827.4
-36826.9
-36826.4
-36825.9
-36825.5
-36825
-36824.6
-36824.2
-36823.8
-36823.4
-36823
-36822.7
-36822.3
-36822
-36821.7
-36821.4
-36821.1
-36820.9
-36820.6
-36820.4
-36820.1
-36819.9
-36819.7
-36819.5
-36819.3
-36819.1
-36818.9
-36818.8
-36818.6
-36818.5
-36818.3
-36818.2
-36818.1
-36817.9
-36817.8
-36817.7
-36817.6
-36817.5
-36817.4
-36817.4
-36817.3
-36817.2
-36817.2
-36817.1
-36817.1
-36817
-36817
-36817
-36816.9
-36816.9
-36816.9
-36816.9
-36816.9
-36858
-36858
-36857.9
-36857.7
-36857.4
-36857.1
-36856.7
-36856.3
-36855.8
-36855.2
-36854.6
-36853.9
-36853.2
-36852.4
-36851.6
-36850.7
-36849.8
-36848.9
-36847.9
-36846.9
-36845.9
-36845.3
-36844.7
-36844
-36843.5
-36842.9
-36842.3
-36841.8
-36841.3
-36840.8
-36840.3
-36839.8
-36839.4
-36838.9
-36838.5
-36838.1
-36837.8
-36837.4
-36837
-36836.7
-36836.4
-36836.1
-36835.8
-36835.5
-36835.3
-36835
-36834.8
-36834.5
-36834.3
-36834.1
-36833.9
-36833.7
-36833.5
-36833.3
-36833.2
-36833
-36832.9
-36832.7
-36832.6
-36832.5
-36832.4
-36832.3
-36832.2
-36832.1
-36832
-36831.9
-36831.8
-36831.7
-36831.7
-36831.6
-36831.6
-36831.5
-36831.5
-36831.4
-36831.4
-36831.4
-36831.3
-36831.3
-36831.3
-36831.3
-36875.7
-36875.7
-36875.6
-36875.3
-36875.1
-36874.7
-36874.3
-36873.9
-36873.3
-36872.8
-36872.1
-36871.4
-36870.6
-36869.8
-36869
-36868.1
-36867.1
-36866.2
-36865.2
-36864.1
-36863
-36861.9
-36861.2
-36860.6
-36860
-36859.4
-36858.9
-36858.3
-36857.8
-36857.3
-36856.8
-36856.3
-36855.9
-36855.5
-36855.1
-36854.7
-36854.3
-36853.9
-36853.6
-36853.3
-36852.9
-36852.6
-36852.4
-36852.1
-36851.8
-36851.6
-36851.3
-36851.1
-36850.9
-36850.7
-36850.5
-36850.3
-36850.1
-36849.9
-36849.8
-36849.6
-36849.5
-36849.3
-36849.2
-36849.1
-36849
-36848.9
-36848.8
-36848.7
-36848.6
-36848.5
-36848.4
-36848.3
-36848.3
-36848.2
-36848.2
-36848.1
-36848.1
-36848
-36848
-36848
-36848
-36847.9
-36847.9
-36847.9
-36895.7
-36895.6
-36895.5
-36895.3
-36895
-36894.7
-36894.2
-36893.8
-36893.2
-36892.6
-36891.9
-36891.2
-36890.4
-36889.5
-36888.6
-36887.7
-36886.7
-36885.7
-36884.6
-36883.5
-36882.4
-36881.2
-36880.1
-36879.3
-36878.7
-36878.1
-36877.5
-36877
-36876.5
-36876
-36875.5
-36875
-36874.6
-36874.1
-36873.7
-36873.3
-36873
-36872.6
-36872.3
-36871.9
-36871.6
-36871.3
-36871.1
-36870.8
-36870.5
-36870.3
-36870
-36869.8
-36869.6
-36869.4
-36869.2
-36869
-36868.8
-36868.7
-36868.5
-36868.4
-36868.2
-36868.1
-36868
-36867.8
-36867.7
-36867.6
-36867.5
-36867.4
-36867.3
-36867.3
-36867.2
-36867.1
-36867
-36867
-36866.9
-36866.9
-36866.9
-36866.8
-36866.8
-36866.8
-36866.7
-36866.7
-36866.7
-36866.7
-36917.9
-36917.9
-36917.7
-36917.5
-36917.2
-36916.9
-36916.4
-36915.9
-36915.3
-36914.6
-36913.9
-36913.1
-36912.3
-36911.4
-36910.5
-36909.5
-36908.5
-36907.4
-36906.3
-36905.2
-36904
-36902.8
-36901.5
-36900.3
-36899.5
-36898.9
-36898.3
-36897.8
-36897.3
-36896.8
-36896.3
-36895.8
-36895.4
-36894.9
-36894.5
-36894.2
-36893.8
-36893.4
-36893.1
-36892.8
-36892.5
-36892.2
-36891.9
-36891.6
-36891.4
-36891.1
-36890.9
-36890.7
-36890.5
-36890.3
-36890.1
-36889.9
-36889.7
-36889.6
-36889.4
-36889.2
-36889.1
-36889
-36888.9
-36888.7
-36888.6
-36888.5
-36888.4
-36888.3
-36888.2
-36888.2
-36888.1
-36888
-36888
-36887.9
-36887.9
-36887.8
-36887.8
-36887.7
-36887.7
-36887.7
-36887.7
-36887.6
-36887.6
-36887.6
-36942.4
-36942.4
-36942.2
-36942
-36941.7
-36941.3
-36940.8
-36940.3
-36939.6
-36939
-36938.2
-36937.4
-36936.5
-36935.6
-36934.6
-36933.6
-36932.5
-36931.3
-36930.2
-36929
-36927.7
-36926.5
-36925.2
-36923.9
-36922.5
-36921.8
-36921.2
-36920.7
-36920.2
-36919.7
-36919.2
-36918.7
-36918.3
-36917.9
-36917.5
-36917.1
-36916.7
-36916.4
-36916
-36915.7
-36915.4
-36915.1
-36914.9
-36914.6
-36914.3
-36914.1
-36913.9
-36913.7
-36913.4
-36913.3
-36913.1
-36912.9
-36912.7
-36912.6
-36912.4
-36912.3
-36912.1
-36912
-36911.9
-36911.8
-36911.7
-36911.5
-36911.5
-36911.4
-36911.3
-36911.2
-36911.1
-36911.1
-36911
-36910.9
-36910.9
-36910.9
-36910.8
-36910.8
-36910.8
-36910.7
-36910.7
-36910.7
-36910.7
-36910.7
-36969.1
-36969.1
-36968.9
-36968.7
-36968.4
-36967.9
-36967.4
-36966.9
-36966.2
-36965.5
-36964.7
-36963.8
-36962.9
-36961.9
-36960.9
-36959.8
-36958.6
-36957.5
-36956.2
-36955
-36953.7
-36952.4
-36951
-36949.6
-36948.2
-36946.8
-36946.2
-36945.7
-36945.2
-36944.6
-36944.2
-36943.7
-36943.3
-36942.9
-36942.5
-36942.1
-36941.7
-36941.4
-36941.1
-36940.8
-36940.5
-36940.2
-36939.9
-36939.6
-36939.4
-36939.2
-36938.9
-36938.7
-36938.5
-36938.3
-36938.2
-36938
-36937.8
-36937.7
-36937.5
-36937.4
-36937.2
-36937.1
-36937
-36936.9
-36936.8
-36936.7
-36936.6
-36936.5
-36936.4
-36936.3
-36936.3
-36936.2
-36936.1
-36936.1
-36936
-36936
-36936
-36935.9
-36935.9
-36935.9
-36935.9
-36935.8
-36935.8
-36935.8
-36998.1
-36998
-36997.9
-36997.6
-36997.2
-36996.8
-36996.3
-36995.7
-36995
-36994.2
-36993.3
-36992.4
-36991.4
-36990.4
-36989.3
-36988.2
-36987
-36985.7
-36984.5
-36983.1
-36981.8
-36980.4
-36979
-36977.6
-36976.1
-36974.6
-36973.3
-36972.8
-36972.2
-36971.7
-36971.3
-36970.8
-36970.4
-36970
-36969.6
-36969.2
-36968.9
-36968.5
-36968.2
-36967.9
-36967.6
-36967.3
-36967.1
-36966.8
-36966.6
-36966.3
-36966.1
-36965.9
-36965.7
-36965.5
-36965.4
-36965.2
-36965
-36964.9
-36964.7
-36964.6
-36964.5
-36964.4
-36964.2
-36964.1
-36964
-36963.9
-36963.8
-36963.8
-36963.7
-36963.6
-36963.5
-36963.5
-36963.4
-36963.4
-36963.3
-36963.3
-36963.2
-36963.2
-36963.2
-36963.1
-36963.1
-36963.1
-36963.1
-36963.1
-37029.2
-37029.2
-37029
-37028.7
-37028.3
-37027.9
-37027.3
-37026.6
-37025.9
-37025
-37024.2
-37023.2
-37022.1
-37021.1
-37019.9
-37018.7
-37017.4
-37016.1
-37014.8
-37013.4
-37012
-37010.6
-37009.1
-37007.6
-37006.1
-37004.5
-37002.9
-37001.9
-37001.4
-37000.9
-37000.4
-37000
-36999.5
-36999.1
-36998.8
-36998.4
-36998.1
-36997.7
-36997.4
-36997.1
-36996.8
-36996.6
-36996.3
-36996.1
-36995.8
-36995.6
-36995.4
-36995.2
-36995
-36994.8
-36994.7
-36994.5
-36994.3
-36994.2
-36994.1
-36993.9
-36993.8
-36993.7
-36993.6
-36993.5
-36993.4
-36993.3
-36993.2
-36993.1
-36993
-36992.9
-36992.9
-36992.8
-36992.8
-36992.7
-36992.7
-36992.6
-36992.6
-36992.6
-36992.5
-36992.5
-36992.5
-36992.5
-36992.5
-36992.5
-37062.6
-37062.5
-37062.3
-37062
-37061.6
-37061.1
-37060.5
-37059.8
-37059
-37058.1
-37057.1
-37056.1
-37055
-37053.9
-37052.6
-37051.4
-37050
-37048.7
-37047.3
-37045.8
-37044.4
-37042.8
-37041.3
-37039.8
-37038.2
-37036.5
-37034.9
-37033.2
-37032.6
-37032.1
-37031.6
-37031.2
-37030.8
-37030.4
-37030
-37029.7
-37029.3
-37029
-37028.7
-37028.4
-37028.1
-37027.9
-37027.6
-37027.4
-37027.2
-37026.9
-37026.7
-37026.6
-37026.4
-37026.2
-37026
-37025.9
-37025.7
-37025.6
-37025.4
-37025.3
-37025.2
-37025.1
-37025
-37024.9
-37024.8
-37024.7
-37024.6
-37024.5
-37024.4
-37024.4
-37024.3
-37024.2
-37024.2
-37024.1
-37024.1
-37024.1
-37024
-37024
-37024
-37023.9
-37023.9
-37023.9
-37023.9
-37023.9
-37098
-37098
-37097.8
-37097.5
-37097
-37096.5
-37095.8
-37095
-37094.2
-37093.3
-37092.3
-37091.1
-37090
-37088.8
-37087.5
-37086.1
-37084.8
-37083.3
-37081.8
-37080.3
-37078.8
-37077.2
-37075.6
-37074
-37072.3
-37070.6
-37068.9
-37067.2
-37065.8
-37065.3
-37064.9
-37064.5
-37064
-37063.7
-37063.3
-37063
-37062.6
-37062.3
-37062
-37061.7
-37061.5
-37061.2
-37061
-37060.8
-37060.5
-37060.3
-37060.1
-37060
-37059.8
-37059.6
-37059.5
-37059.3
-37059.2
-37059
-37058.9
-37058.8
-37058.6
-37058.5
-37058.4
-37058.3
-37058.2
-37058.2
-37058.1
-37058
-37057.9
-37057.9
-37057.8
-37057.7
-37057.7
-37057.6
-37057.6
-37057.6
-37057.5
-37057.5
-37057.5
-37057.4
-37057.4
-37057.4
-37057.4
-37057.4
-37135.7
-37135.6
-37135.4
-37135.1
-37134.6
-37134
-37133.3
-37132.5
-37131.6
-37130.6
-37129.5
-37128.3
-37127.1
-37125.8
-37124.4
-37123
-37121.5
-37120
-37118.5
-37116.9
-37115.3
-37113.6
-37112
-37110.3
-37108.5
-37106.8
-37105
-37103.2
-37101.5
-37100.6
-37100.2
-37099.7
-37099.4
-37099
-37098.6
-37098.3
-37098
-37097.7
-37097.4
-37097.1
-37096.9
-37096.6
-37096.4
-37096.2
-37096
-37095.8
-37095.6
-37095.4
-37095.2
-37095.1
-37094.9
-37094.8
-37094.6
-37094.5
-37094.4
-37094.3
-37094.2
-37094
-37093.9
-37093.9
-37093.8
-37093.7
-37093.6
-37093.5
-37093.5
-37093.4
-37093.3
-37093.3
-37093.2
-37093.2
-37093.1
-37093.1
-37093.1
-37093
-37093
-37093
-37093
-37093
-37093
-37093
-37175.5
-37175.4
-37175.2
-37174.8
-37174.3
-37173.6
-37172.9
-37172
-37171
-37170
-37168.8
-37167.5
-37166.2
-37164.9
-37163.4
-37161.9
-37160.4
-37158.8
-37157.2
-37155.5
-37153.8
-37152.1
-37150.4
-37148.6
-37146.8
-37145
-37143.2
-37141.3
-37139.4
-37137.9
-37137.5
-37137.1
-37136.7
-37136.3
-37136
-37135.7
-37135.3
-37135.1
-37134.8
-37134.5
-37134.3
-37134.1
-37133.8
-37133.6
-37133.4
-37133.2
-37133.1
-37132.9
-37132.7
-37132.6
-37132.4
-37132.3
-37132.2
-37132
-37131.9
-37131.8
-37131.7
-37131.6
-37131.5
-37131.4
-37131.3
-37131.2
-37131.2
-37131.1
-37131
-37131
-37130.9
-37130.9
-37130.8
-37130.8
-37130.7
-37130.7
-37130.7
-37130.6
-37130.6
-37130.6
-37130.6
-37130.6
-37130.6
-37130.6
-37217.4
-37217.3
-37217.1
-37216.6
-37216.1
-37215.4
-37214.6
-37213.6
-37212.6
-37211.4
-37210.2
-37208.8
-37207.4
-37206
-37204.5
-37202.9
-37201.3
-37199.6
-37197.9
-37196.2
-37194.4
-37192.6
-37190.8
-37189
-37187.1
-37185.2
-37183.3
-37181.4
-37179.5
-37177.5
-37176.8
-37176.4
-37176
-37175.6
-37175.3
-37175
-37174.7
-37174.5
-37174.2
-37174
-37173.7
-37173.5
-37173.3
-37173.1
-37172.9
-37172.7
-37172.6
-37172.4
-37172.2
-37172.1
-37172
-37171.8
-37171.7
-37171.6
-37171.5
-37171.4
-37171.3
-37171.2
-37171.1
-37171
-37170.9
-37170.8
-37170.8
-37170.7
-37170.6
-37170.6
-37170.5
-37170.5
-37170.4
-37170.4
-37170.3
-37170.3
-37170.3
-37170.2
-37170.2
-37170.2
-37170.2
-37170.2
-37170.2
-37170.2
-37261.4
-37261.3
-37261
-37260.6
-37260
-37259.2
-37258.3
-37257.3
-37256.1
-37254.9
-37253.6
-37252.1
-37250.7
-37249.1
-37247.5
-37245.9
-37244.2
-37242.4
-37240.6
-37238.8
-37237
-37235.1
-37233.2
-37231.3
-37229.4
-37227.4
-37225.5
-37223.5
-37221.5
-37219.5
-37218
-37217.7
-37217.3
-37217
-37216.7
-37216.4
-37216.1
-37215.8
-37215.6
-37215.4
-37215.1
-37214.9
-37214.7
-37214.6
-37214.4
-37214.2
-37214.1
-37213.9
-37213.8
-37213.6
-37213.5
-37213.4
-37213.2
-37213.1
-37213
-37212.9
-37212.8
-37212.7
-37212.6
-37212.6
-37212.5
-37212.4
-37212.4
-37212.3
-37212.2
-37212.2
-37212.1
-37212.1
-37212
-37212
-37212
-37211.9
-37211.9
-37211.9
-37211.9
-37211.8
-37211.8
-37211.8
-37211.8
-37211.8
-37307.5
-37307.4
-37307.1
-37306.6
-37305.9
-37305.1
-37304.1
-37303
-37301.7
-37300.4
-37299
-37297.5
-37295.9
-37294.2
-37292.6
-37290.8
-37289
-37287.2
-37285.3
-37283.4
-37281.5
-37279.6
-37277.6
-37275.7
-37273.7
-37271.6
-37269.6
-37267.6
-37265.5
-37263.4
-37261.3
-37260.9
-37260.6
-37260.2
-37260
-37259.7
-37259.4
-37259.2
-37259
-37258.7
-37258.5
-37258.3
-37258.2
-37258
-37257.8
-37257.7
-37257.5
-37257.4
-37257.2
-37257.1
-37257
-37256.9
-37256.8
-37256.6
-37256.5
-37256.5
-37256.4
-37256.3
-37256.2
-37256.1
-37256
-37256
-37255.9
-37255.9
-37255.8
-37255.7
-37255.7
-37255.7
-37255.6
-37255.6
-37255.5
-37255.5
-37255.5
-37255.5
-37255.4
-37255.4
-37255.4
-37255.4
-37255.4
-37255.4
-37355.7
-37355.6
-37355.2
-37354.7
-37353.9
-37353
-37351.9
-37350.7
-37349.4
-37347.9
-37346.4
-37344.8
-37343.1
-37341.4
-37339.6
-37337.7
-37335.9
-37334
-37332
-37330
-37328.1
-37326.1
-37324
-37322
-37319.9
-37317.8
-37315.7
-37313.6
-37311.5
-37309.3
-37307.2
-37306.1
-37305.8
-37305.5
-37305.2
-37305
-37304.8
-37304.5
-37304.3
-37304.1
-37303.9
-37303.8
-37303.6
-37303.4
-37303.3
-37303.1
-37303
-37302.8
-37302.7
-37302.6
-37302.5
-37302.4
-37302.3
-37302.2
-37302.1
-37302
-37301.9
-37301.8
-37301.8
-37301.7
-37301.6
-37301.6
-37301.5
-37301.4
-37301.4
-37301.3
-37301.3
-37301.3
-37301.2
-37301.2
-37301.1
-37301.1
-37301.1
-37301.1
-37301.1
-37301
-37301
-37301
-37301
-37301
-37405.9
-37405.8
-37405.4
-37404.8
-37404
-37402.9
-37401.7
-37400.4
-37399
-37397.4
-37395.7
-37394
-37392.3
-37390.4
-37388.5
-37386.6
-37384.6
-37382.6
-37380.6
-37378.6
-37376.5
-37374.4
-37372.3
-37370.2
-37368
-37365.9
-37363.7
-37361.5
-37359.4
-37357.2
-37355
-37353.3
-37353
-37352.7
-37352.5
-37352.3
-37352
-37351.8
-37351.6
-37351.5
-37351.3
-37351.1
-37351
-37350.8
-37350.7
-37350.5
-37350.4
-37350.3
-37350.2
-37350.1
-37350
-37349.9
-37349.8
-37349.7
-37349.6
-37349.5
-37349.4
-37349.4
-37349.3
-37349.2
-37349.2
-37349.1
-37349
-37349
-37348.9
-37348.9
-37348.9
-37348.8
-37348.8
-37348.7
-37348.7
-37348.7
-37348.7
-37348.6
-37348.6
-37348.6
-37348.6
-37348.6
-37348.6
-37348.6
-37458.2
-37458
-37457.6
-37456.9
-37456
-37454.8
-37453.5
-37452.1
-37450.5
-37448.8
-37447.1
-37445.2
-37443.3
-37441.4
-37439.4
-37437.4
-37435.3
-37433.2
-37431.1
-37429
-37426.9
-37424.7
-37422.5
-37420.3
-37418.1
-37415.9
-37413.7
-37411.4
-37409.2
-37406.9
-37404.6
-37402.4
-37402.1
-37401.9
-37401.7
-37401.5
-37401.3
-37401.1
-37400.9
-37400.8
-37400.6
-37400.4
-37400.3
-37400.2
-37400
-37399.9
-37399.8
-37399.7
-37399.6
-37399.5
-37399.4
-37399.3
-37399.2
-37399.1
-37399.1
-37399
-37398.9
-37398.8
-37398.8
-37398.7
-37398.7
-37398.6
-37398.5
-37398.5
-37398.5
-37398.4
-37398.4
-37398.3
-37398.3
-37398.3
-37398.2
-37398.2
-37398.2
-37398.2
-37398.2
-37398.2
-37398.1
-37398.1
-37398.1
-37398.1
-37512.5
-37512.3
-37511.8
-37511
-37510
-37508.7
-37507.2
-37505.6
-37503.9
-37502.1
-37500.2
-37498.3
-37496.3
-37494.2
-37492.1
-37490
-37487.8
-37485.7
-37483.5
-37481.3
-37479.1
-37476.8
-37474.6
-37472.3
-37470.1
-37467.8
-37465.5
-37463.2
-37460.9
-37458.6
-37456.3
-37453.9
-37453.2
-37453
-37452.8
-37452.6
-37452.4
-37452.3
-37452.1
-37452
-37451.8
-37451.7
-37451.6
-37451.5
-37451.3
-37451.2
-37451.1
-37451
-37450.9
-37450.8
-37450.8
-37450.7
-37450.6
-37450.5
-37450.5
-37450.4
-37450.3
-37450.3
-37450.2
-37450.1
-37450.1
-37450
-37450
-37450
-37449.9
-37449.9
-37449.8
-37449.8
-37449.8
-37449.8
-37449.7
-37449.7
-37449.7
-37449.7
-37449.7
-37449.6
-37449.6
-37449.6
-37449.6
-37449.6
-37568.8
-37568.6
-37568
-37567.1
-37565.9
-37564.5
-37562.8
-37561.1
-37559.2
-37557.3
-37555.2
-37553.2
-37551
-37548.9
-37546.7
-37544.5
-37542.3
-37540
-37537.7
-37535.4
-37533.2
-37530.9
-37528.6
-37526.2
-37523.9
-37521.6
-37519.2
-37516.8
-37514.5
-37512.1
-37509.7
-37507.3
-37506.2
-37506
-37505.8
-37505.7
-37505.5
-37505.4
-37505.3
-37505.1
-37505
-37504.9
-37504.8
-37504.7
-37504.6
-37504.5
-37504.4
-37504.3
-37504.2
-37504.1
-37504.1
-37504
-37503.9
-37503.9
-37503.8
-37503.7
-37503.7
-37503.6
-37503.6
-37503.5
-37503.5
-37503.4
-37503.4
-37503.3
-37503.3
-37503.3
-37503.2
-37503.2
-37503.2
-37503.2
-37503.1
-37503.1
-37503.1
-37503.1
-37503.1
-37503.1
-37503
-37503
-37503
-37503
-37627.1
-37626.9
-37626.2
-37625.1
-37623.7
-37622.1
-37620.2
-37618.3
-37616.3
-37614.2
-37612
-37609.8
-37607.6
-37605.4
-37603.1
-37600.8
-37598.5
-37596.1
-37593.8
-37591.5
-37589.1
-37586.7
-37584.4
-37582
-37579.5
-37577.2
-37574.8
-37572.3
-37569.9
-37567.5
-37565.1
-37562.6
-37561.1
-37560.9
-37560.8
-37560.6
-37560.5
-37560.4
-37560.3
-37560.2
-37560.1
-37560
-37559.9
-37559.8
-37559.7
-37559.6
-37559.6
-37559.5
-37559.4
-37559.3
-37559.3
-37559.2
-37559.2
-37559.1
-37559
-37559
-37558.9
-37558.9
-37558.8
-37558.8
-37558.8
-37558.7
-37558.7
-37558.6
-37558.6
-37558.6
-37558.6
-37558.5
-37558.5
-37558.5
-37558.5
-37558.4
-37558.4
-37558.4
-37558.4
-37558.4
-37558.4
-37558.4
-37558.4
-37558.4
-37687.4
-37687.1
-37686.2
-37684.9
-37683.3
-37681.4
-37679.4
-37677.3
-37675.1
-37672.9
-37670.6
-37668.3
-37666
-37663.6
-37661.2
-37658.9
-37656.5
-37654.1
-37651.7
-37649.3
-37646.8
-37644.4
-37642
-37639.5
-37637.1
-37634.6
-37632.1
-37629.7
-37627.2
-37624.7
-37622.2
-37619.7
-37617.8
-37617.7
-37617.6
-37617.5
-37617.4
-37617.3
-37617.2
-37617.1
-37617
-37617
-37616.9
-37616.8
-37616.7
-37616.7
-37616.6
-37616.5
-37616.5
-37616.4
-37616.4
-37616.3
-37616.3
-37616.2
-37616.2
-37616.1
-37616.1
-37616
-37616
-37616
-37615.9
-37615.9
-37615.9
-37615.8
-37615.8
-37615.8
-37615.7
-37615.7
-37615.7
-37615.7
-37615.7
-37615.6
-37615.6
-37615.6
-37615.6
-37615.6
-37615.6
-37615.6
-37615.6
-37615.6
-37749.7
-37749.3
-37748.2
-37746.5
-37744.6
-37742.5
-37740.3
-37738
-37735.7
-37733.3
-37730.9
-37728.5
-37726.1
-37723.7
-37721.2
-37718.7
-37716.3
-37713.8
-37711.3
-37708.8
-37706.3
-37703.9
-37701.4
-37698.9
-37696.4
-37693.9
-37691.4
-37688.8
-37686.3
-37683.7
-37681.2
-37678.7
-37676.5
-37676.4
-37676.3
-37676.2
-37676.2
-37676.1
-37676
-37676
-37675.9
-37675.8
-37675.8
-37675.7
-37675.7
-37675.6
-37675.6
-37675.5
-37675.5
-37675.4
-37675.4
-37675.3
-37675.3
-37675.3
-37675.2
-37675.2
-37675.1
-37675.1
-37675.1
-37675
-37675
-37675
-37675
-37674.9
-37674.9
-37674.9
-37674.9
-37674.8
-37674.8
-37674.8
-37674.8
-37674.8
-37674.8
-37674.7
-37674.7
-37674.7
-37674.7
-37674.7
-37674.7
-37674.7
-37813.9
-37813.3
-37811.8
-37809.8
-37807.6
-37805.2
-37802.8
-37800.3
-37797.9
-37795.4
-37792.9
-37790.4
-37787.9
-37785.3
-37782.8
-37780.3
-37777.8
-37775.2
-37772.7
-37770.2
-37767.6
-37765.1
-37762.6
-37760
-37757.4
-37754.9
-37752.3
-37749.8
-37747.2
-37744.6
-37742
-37739.4
-37737
-37736.9
-37736.9
-37736.9
-37736.8
-37736.8
-37736.7
-37736.7
-37736.6
-37736.6
-37736.6
-37736.5
-37736.5
-37736.5
-37736.4
-37736.4
-37736.3
-37736.3
-37736.3
-37736.2
-37736.2
-37736.2
-37736.1
-37736.1
-37736.1
-37736.1
-37736
-37736
-37736
-37736
-37735.9
-37735.9
-37735.9
-37735.9
-37735.9
-37735.8
-37735.8
-37735.8
-37735.8
-37735.8
-37735.8
-37735.8
-37735.8
-37735.7
-37735.7
-37735.7
-37735.7
-37735.7
-37880.1
-37879
-37876.8
-37874.4
-37871.9
-37869.3
-37866.8
-37864.2
-37861.6
-37859.1
-37856.5
-37853.9
-37851.4
-37848.7
-37846.2
-37843.6
-37841
-37838.4
-37835.8
-37833.3
-37830.7
-37828.1
-37825.5
-37822.9
-37820.3
-37817.7
-37815.1
-37812.5
-37809.9
-37807.3
-37804.6
-37802
-37799.4
-37799.4
-37799.4
-37799.3
-37799.3
-37799.3
-37799.3
-37799.3
-37799.3
-37799.2
-37799.2
-37799.2
-37799.2
-37799.2
-37799.1
-37799.1
-37799.1
-37799.1
-37799
-37799
-37799
-37799
-37798.9
-37798.9
-37798.9
-37798.9
-37798.9
-37798.8
-37798.8
-37798.8
-37798.8
-37798.8
-37798.7
-37798.7
-37798.7
-37798.7
-37798.7
-37798.7
-37798.7
-37798.7
-37798.6
-37798.6
-37798.6
-37798.6
-37798.6
-37798.6
-37798.6
-37798.6
-37948.1
-37945.4
-37942.8
-37940.1
-37937.5
-37934.8
-37932.2
-37929.6
-37926.9
-37924.3
-37921.7
-37919
-37916.4
-37913.8
-37911.2
-37908.5
-37905.9
-37903.3
-37900.7
-37898
-37895.4
-37892.8
-37890.2
-37887.5
-37884.9
-37882.2
-37879.6
-37876.9
-37874.3
-37871.6
-37869
-37866.3
-37863.6
-37863.7
-37863.7
-37863.7
-37863.7
-37863.7
-37863.7
-37863.7
-37863.7
-37863.7
-37863.7
-37863.7
-37863.7
-37863.7
-37863.7
-37863.7
-37863.7
-37863.7
-37863.6
-37863.6
-37863.6
-37863.6
-37863.6
-37863.6
-37863.6
-37863.5
-37863.5
-37863.5
-37863.5
-37863.5
-37863.5
-37863.5
-37863.5
-37863.4
-37863.4
-37863.4
-37863.4
-37863.4
-37863.4
-37863.4
-37863.4
-37863.4
-37863.4
-37863.4
-37863.4
-37863.4
-37863.4
-37863.4
-38012.7
-38011.6
-38009.4
-38006.9
-38004.3
-38001.7
-37999.1
-37996.4
-37993.8
-37991.1
-37988.5
-37985.8
-37983.1
-37980.5
-37977.9
-37975.2
-37972.5
-37969.9
-37967.2
-37964.6
-37961.9
-37959.2
-37956.5
-37953.9
-37951.2
-37948.5
-37945.9
-37943.2
-37940.5
-37937.8
-37935.1
-37932.4
-37929.7
-37929.8
-37929.8
-37929.9
-37929.9
-37930
-37930
-37930
-37930
-37930.1
-37930.1
-37930.1
-37930.1
-37930.1
-37930.1
-37930.1
-37930.1
-37930.1
-37930.1
-37930.1
-37930.1
-37930.1
-37930.1
-37930.1
-37930.1
-37930.1
-37930.1
-37930
-37930
-37930
-37930
-37930
-37930
-37930
-37930
-37930
-37930
-37930
-37930
-37930
-37930
-37930
-37930
-37929.9
-37929.9
-37929.9
-37929.9
-37929.9
-38079
-38078.3
-38076.7
-38074.6
-38072.3
-38069.8
-38067.2
-38064.7
-38062
-38059.4
-38056.7
-38054.1
-38051.4
-38048.8
-38046.1
-38043.4
-38040.8
-38038.1
-38035.4
-38032.7
-38030.1
-38027.3
-38024.6
-38022
-38019.3
-38016.5
-38013.8
-38011.1
-38008.4
-38005.7
-38002.9
-38000.2
-37997.6
-37997.7
-37997.8
-37997.9
-37998
-37998
-37998.1
-37998.1
-37998.2
-37998.2
-37998.3
-37998.3
-37998.3
-37998.3
-37998.3
-37998.4
-37998.4
-37998.4
-37998.4
-37998.4
-37998.4
-37998.4
-37998.4
-37998.4
-37998.4
-37998.4
-37998.4
-37998.4
-37998.4
-37998.4
-37998.4
-37998.4
-37998.4
-37998.4
-37998.4
-37998.4
-37998.4
-37998.4
-37998.4
-37998.4
-37998.4
-37998.4
-37998.4
-37998.4
-37998.4
-37998.4
-37998.4
-37998.4
-38147
-38146.6
-38145.3
-38143.6
-38141.5
-38139.2
-38136.8
-38134.3
-38131.8
-38129.2
-38126.6
-38124
-38121.3
-38118.7
-38116
-38113.3
-38110.6
-38108
-38105.2
-38102.5
-38099.9
-38097.1
-38094.4
-38091.7
-38089
-38086.2
-38083.5
-38080.8
-38078
-38075.2
-38072.5
-38069.7
-38067.4
-38067.5
-38067.6
-38067.7
-38067.8
-38067.9
-38068
-38068.1
-38068.1
-38068.2
-38068.2
-38068.3
-38068.3
-38068.4
-38068.4
-38068.4
-38068.5
-38068.5
-38068.5
-38068.5
-38068.5
-38068.5
-38068.5
-38068.6
-38068.6
-38068.6
-38068.6
-38068.6
-38068.6
-38068.6
-38068.6
-38068.6
-38068.6
-38068.6
-38068.6
-38068.6
-38068.6
-38068.6
-38068.6
-38068.6
-38068.6
-38068.6
-38068.6
-38068.6
-38068.6
-38068.6
-38068.6
-38068.6
-38216.7
-38216.4
-38215.4
-38214
-38212.1
-38210.1
-38207.8
-38205.5
-38203
-38200.5
-38197.9
-38195.4
-38192.8
-38190.1
-38187.4
-38184.8
-38182.1
-38179.4
-38176.7
-38174
-38171.3
-38168.6
-38165.8
-38163.1
-38160.4
-38157.6
-38154.8
-38152.1
-38149.3
-38146.6
-38143.8
-38141
-38138.9
-38139.1
-38139.3
-38139.4
-38139.5
-38139.6
-38139.7
-38139.8
-38139.9
-38140
-38140.1
-38140.1
-38140.2
-38140.2
-38140.3
-38140.3
-38140.3
-38140.4
-38140.4
-38140.4
-38140.5
-38140.5
-38140.5
-38140.5
-38140.5
-38140.5
-38140.5
-38140.6
-38140.6
-38140.6
-38140.6
-38140.6
-38140.6
-38140.6
-38140.6
-38140.6
-38140.6
-38140.6
-38140.6
-38140.6
-38140.6
-38140.6
-38140.6
-38140.6
-38140.6
-38140.6
-38140.6
-38140.6
-38288.2
-38287.9
-38287.1
-38285.9
-38284.2
-38282.4
-38280.3
-38278.1
-38275.8
-38273.3
-38270.9
-38268.3
-38265.8
-38263.2
-38260.5
-38257.9
-38255.2
-38252.5
-38249.8
-38247.1
-38244.4
-38241.7
-38238.9
-38236.2
-38233.4
-38230.7
-38227.9
-38225.1
-38222.3
-38219.5
-38216.7
-38213.9
-38212.2
-38212.4
-38212.6
-38212.8
-38212.9
-38213.1
-38213.2
-38213.3
-38213.4
-38213.5
-38213.6
-38213.7
-38213.7
-38213.8
-38213.9
-38213.9
-38214
-38214
-38214.1
-38214.1
-38214.1
-38214.2
-38214.2
-38214.2
-38214.2
-38214.2
-38214.3
-38214.3
-38214.3
-38214.3
-38214.3
-38214.3
-38214.3
-38214.3
-38214.4
-38214.4
-38214.4
-38214.4
-38214.4
-38214.4
-38214.4
-38214.4
-38214.4
-38214.4
-38214.4
-38214.4
-38214.4
-38214.4
-38361.3
-38361.1
-38360.4
-38359.3
-38357.9
-38356.2
-38354.3
-38352.2
-38350
-38347.7
-38345.2
-38342.8
-38340.3
-38337.7
-38335.1
-38332.6
-38329.9
-38327.2
-38324.5
-38321.8
-38319.1
-38316.4
-38313.6
-38310.9
-38308.1
-38305.3
-38302.6
-38299.8
-38297
-38294.1
-38291.3
-38288.5
-38287.4
-38287.6
-38287.8
-38288
-38288.2
-38288.4
-38288.5
-38288.6
-38288.8
-38288.9
-38289
-38289.1
-38289.2
-38289.2
-38289.3
-38289.4
-38289.4
-38289.5
-38289.5
-38289.6
-38289.6
-38289.7
-38289.7
-38289.7
-38289.8
-38289.8
-38289.8
-38289.8
-38289.8
-38289.9
-38289.9
-38289.9
-38289.9
-38289.9
-38289.9
-38289.9
-38289.9
-38290
-38290
-38290
-38290
-38290
-38290
-38290
-38290
-38290
-38290
-38290
-38436.1
-38435.9
-38435.3
-38434.4
-38433.1
-38431.5
-38429.8
-38427.8
-38425.8
-38423.6
-38421.2
-38418.8
-38416.4
-38413.9
-38411.4
-38408.8
-38406.2
-38403.5
-38400.8
-38398.2
-38395.5
-38392.7
-38390
-38387.3
-38384.5
-38381.7
-38378.9
-38376.1
-38373.3
-38370.5
-38367.6
-38364.8
-38364.3
-38364.6
-38364.8
-38365
-38365.2
-38365.4
-38365.6
-38365.7
-38365.9
-38366
-38366.1
-38366.2
-38366.3
-38366.4
-38366.5
-38366.6
-38366.7
-38366.7
-38366.8
-38366.8
-38366.9
-38366.9
-38367
-38367
-38367.1
-38367.1
-38367.1
-38367.1
-38367.2
-38367.2
-38367.2
-38367.2
-38367.2
-38367.3
-38367.3
-38367.3
-38367.3
-38367.3
-38367.3
-38367.3
-38367.3
-38367.3
-38367.3
-38367.3
-38367.3
-38367.4
-38367.4
-38367.4
-38512.6
-38512.4
-38511.9
-38511.1
-38509.9
-38508.5
-38506.9
-38505
-38503.1
-38500.9
-38498.7
-38496.4
-38494.1
-38491.6
-38489.1
-38486.6
-38484
-38481.4
-38478.7
-38476.1
-38473.4
-38470.6
-38467.9
-38465.2
-38462.4
-38459.6
-38456.9
-38454
-38451.2
-38448.4
-38445.5
-38442.7
-38443
-38443.3
-38443.6
-38443.8
-38444.1
-38444.3
-38444.4
-38444.6
-38444.8
-38444.9
-38445
-38445.2
-38445.3
-38445.4
-38445.5
-38445.6
-38445.6
-38445.7
-38445.8
-38445.9
-38445.9
-38446
-38446
-38446.1
-38446.1
-38446.1
-38446.2
-38446.2
-38446.2
-38446.3
-38446.3
-38446.3
-38446.3
-38446.4
-38446.4
-38446.4
-38446.4
-38446.4
-38446.4
-38446.4
-38446.4
-38446.5
-38446.5
-38446.5
-38446.5
-38446.5
-38446.5
-38446.5
-38590.7
-38590.6
-38590.1
-38589.4
-38588.3
-38587
-38585.5
-38583.8
-38581.9
-38579.9
-38577.8
-38575.6
-38573.2
-38570.9
-38568.4
-38566
-38563.4
-38560.8
-38558.2
-38555.6
-38552.9
-38550.2
-38547.5
-38544.7
-38542
-38539.2
-38536.4
-38533.6
-38530.8
-38527.9
-38525.1