/*--------------------------------*- C++ -*----------------------------------*\
| =========                 |                                                 |
| \\      /  F ield         | OpenFOAM: The Open Source CFD Toolbox           |
|  \\    /   O peration     | Version:  2212                                  |
|   \\  /    A nd           | Website:  www.openfoam.com                      |
|    \\/     M anipulation  |                                                 |
\*---------------------------------------------------------------------------*/
FoamFile
{
    version     2.0;
    format      ascii;
    arch        "LSB;label=32;scalar=64";
    class       volScalarField;
    location    "0";
    object      rhoPrime;
}
// * * * * * * * * * * * * * * * * * * * * * * * * * * * * * * * * * * * * * //

dimensions      [1 -3 0 0 0 0 0];

internalField   nonuniform List<scalar> 
65536
(
0.00247992
0.00247893
0.00247694
0.00247397
0.00247001
0.00246508
0.00245917
0.0024523
0.00244448
0.00243572
0.00242603
0.00241543
0.00240393
0.00239155
0.00237831
0.00236422
0.00234931
0.0023336
0.0023171
0.00229985
0.00228187
0.00226317
0.0022438
0.00222376
0.0022031
0.00218183
0.00215999
0.00213761
0.0021147
0.00209131
0.00206746
0.00204317
0.00201849
0.00199344
0.00196804
0.00194234
0.00191635
0.00189011
0.00186364
0.00183697
0.00181014
0.00178317
0.00175608
0.0017289
0.00170166
0.00167439
0.0016471
0.00161983
0.00159259
0.00156541
0.00153832
0.00151132
0.00148444
0.0014577
0.00143113
0.00140472
0.00137852
0.00135252
0.00132674
0.0013012
0.00127591
0.00125089
0.00122614
0.00120167
0.0011775
0.00115364
0.00113008
0.00110685
0.00108394
0.00106137
0.00103913
0.00101723
0.000995679
0.000974476
0.000953624
0.000933126
0.000912982
0.000893193
0.00087376
0.000854682
0.000835959
0.000817591
0.000799574
0.000781909
0.000764592
0.000747621
0.000730993
0.000714706
0.000698755
0.000683138
0.000667851
0.000652889
0.000638248
0.000623925
0.000609915
0.000596214
0.000582815
0.000569716
0.000556911
0.000544395
0.000532164
0.000520212
0.000508535
0.000497127
0.000485983
0.000475099
0.000464469
0.000454089
0.000443953
0.000434057
0.000424395
0.000414963
0.000405756
0.00039677
0.000387999
0.000379438
0.000371084
0.000362932
0.000354977
0.000347215
0.000339642
0.000332252
0.000325043
0.00031801
0.000311148
0.000304455
0.000297925
0.000291556
0.000285343
0.000279283
0.000273372
0.000267606
0.000261983
0.000256498
0.000251149
0.000245932
0.000240844
0.000235881
0.000231042
0.000226322
0.000221719
0.000217231
0.000212853
0.000208584
0.000204421
0.000200362
0.000196403
0.000192542
0.000188777
0.000185106
0.000181526
0.000178035
0.000174631
0.000171311
0.000168074
0.000164917
0.000161838
0.000158837
0.00015591
0.000153055
0.000150272
0.000147558
0.000144911
0.00014233
0.000139814
0.00013736
0.000134967
0.000132633
0.000130358
0.000128139
0.000125975
0.000123865
0.000121807
0.000119801
0.000117845
0.000115937
0.000114076
0.000112262
0.000110493
0.000108768
0.000107086
0.000105445
0.000103845
0.000102285
0.000100764
9.92807e-05
9.78341e-05
9.64235e-05
9.50479e-05
9.37064e-05
9.23982e-05
9.11225e-05
8.98785e-05
8.86654e-05
8.74823e-05
8.63287e-05
8.52037e-05
8.41065e-05
8.30366e-05
8.19933e-05
8.09758e-05
7.99836e-05
7.9016e-05
7.80724e-05
7.71522e-05
7.62548e-05
7.53797e-05
7.45262e-05
7.3694e-05
7.28823e-05
7.20908e-05
7.13189e-05
7.05661e-05
6.9832e-05
6.91161e-05
6.84179e-05
6.77371e-05
6.70731e-05
6.64255e-05
6.5794e-05
6.51782e-05
6.45775e-05
6.39918e-05
6.34206e-05
6.28635e-05
6.23202e-05
6.17904e-05
6.12737e-05
6.07698e-05
6.02784e-05
5.97991e-05
5.93317e-05
5.88759e-05
5.84314e-05
5.79978e-05
5.7575e-05
5.71627e-05
5.67605e-05
5.63683e-05
5.59859e-05
5.56128e-05
5.52491e-05
5.48943e-05
5.45483e-05
5.42108e-05
5.38817e-05
5.35608e-05
5.32478e-05
5.29425e-05
5.26448e-05
5.23544e-05
5.20713e-05
5.17951e-05
5.15258e-05
5.12631e-05
5.10069e-05
5.07571e-05
5.05134e-05
5.02758e-05
5.0044e-05
4.9818e-05
4.95975e-05
4.93825e-05
4.91728e-05
4.89684e-05
4.87689e-05
4.85744e-05
4.83847e-05
4.81997e-05
4.80193e-05
4.78433e-05
4.76717e-05
4.75043e-05
4.7341e-05
4.71818e-05
4.70265e-05
4.68751e-05
4.67274e-05
4.65834e-05
4.64429e-05
4.63059e-05
4.61722e-05
4.60419e-05
4.59148e-05
4.57908e-05
4.56699e-05
4.5552e-05
4.5437e-05
4.53248e-05
4.52155e-05
4.51088e-05
4.50047e-05
4.49032e-05
4.48043e-05
4.47077e-05
4.46136e-05
4.45218e-05
4.44322e-05
4.43449e-05
4.42597e-05
4.41766e-05
4.40956e-05
4.40166e-05
4.39395e-05
4.38643e-05
4.3791e-05
4.37195e-05
4.36498e-05
4.35818e-05
4.35154e-05
4.34507e-05
4.33876e-05
4.33261e-05
4.32661e-05
4.32075e-05
4.31504e-05
4.30947e-05
4.30404e-05
4.29875e-05
4.29358e-05
4.28854e-05
4.28363e-05
4.27883e-05
4.27416e-05
4.2696e-05
4.26515e-05
4.26082e-05
4.25659e-05
4.25246e-05
4.24844e-05
4.24451e-05
4.24069e-05
4.23695e-05
4.23331e-05
4.22976e-05
4.2263e-05
4.22292e-05
4.21962e-05
4.21641e-05
4.21328e-05
4.21022e-05
4.20724e-05
4.20433e-05
4.2015e-05
4.19873e-05
4.19603e-05
4.1934e-05
4.19083e-05
4.18833e-05
4.18589e-05
4.18351e-05
4.18119e-05
4.17892e-05
4.17671e-05
4.17456e-05
4.17246e-05
4.17041e-05
4.16841e-05
4.16646e-05
4.16456e-05
4.1627e-05
4.16089e-05
4.15913e-05
4.15741e-05
4.15573e-05
4.15409e-05
4.1525e-05
4.15094e-05
4.14942e-05
4.14794e-05
4.14649e-05
4.14508e-05
4.14371e-05
4.14237e-05
4.14106e-05
4.13979e-05
4.13854e-05
4.13733e-05
4.13615e-05
4.13499e-05
4.13387e-05
4.13277e-05
4.1317e-05
4.13066e-05
4.12964e-05
4.12864e-05
4.12768e-05
4.12673e-05
4.12581e-05
4.12491e-05
4.12403e-05
4.12318e-05
4.12235e-05
4.12153e-05
4.12074e-05
4.11997e-05
4.11921e-05
4.11848e-05
4.11776e-05
4.11706e-05
4.11638e-05
4.11571e-05
4.11506e-05
4.11443e-05
4.11381e-05
4.11321e-05
4.11262e-05
4.11205e-05
4.11149e-05
4.11095e-05
4.11042e-05
4.1099e-05
4.1094e-05
4.10891e-05
4.10843e-05
4.10796e-05
4.1075e-05
4.10706e-05
4.10662e-05
4.1062e-05
4.10579e-05
4.10539e-05
4.10499e-05
4.10461e-05
4.10424e-05
4.10388e-05
4.10352e-05
4.10318e-05
4.10284e-05
4.10251e-05
4.10219e-05
4.10188e-05
4.10158e-05
4.10128e-05
4.101e-05
4.10071e-05
4.10044e-05
4.10017e-05
4.09991e-05
4.09966e-05
4.09942e-05
4.09917e-05
4.09894e-05
4.09871e-05
4.09849e-05
4.09828e-05
4.09807e-05
4.09786e-05
4.09766e-05
4.09747e-05
4.09728e-05
4.09709e-05
4.09692e-05
4.09674e-05
4.09657e-05
4.09641e-05
4.09625e-05
4.09609e-05
4.09594e-05
4.09579e-05
4.09565e-05
4.09551e-05
4.09538e-05
4.09525e-05
4.09512e-05
4.095e-05
4.09488e-05
4.09476e-05
4.09465e-05
4.09454e-05
4.09443e-05
4.09433e-05
4.09423e-05
4.09414e-05
4.09404e-05
4.09395e-05
4.09387e-05
4.09378e-05
4.0937e-05
4.09363e-05
4.09355e-05
4.09348e-05
4.09341e-05
4.09334e-05
4.09328e-05
4.09322e-05
4.09316e-05
4.0931e-05
4.09305e-05
4.093e-05
4.09295e-05
4.0929e-05
4.09286e-05
4.09282e-05
4.09278e-05
4.09274e-05
4.0927e-05
4.09267e-05
4.09264e-05
4.09261e-05
4.09259e-05
4.09257e-05
4.09254e-05
4.09252e-05
4.09251e-05
4.09249e-05
4.09248e-05
4.09247e-05
4.09246e-05
4.09245e-05
4.09245e-05
4.09244e-05
0.00247547
0.00247448
0.0024725
0.00246953
0.00246557
0.00246064
0.00245474
0.00244787
0.00244006
0.00243131
0.00242162
0.00241103
0.00239954
0.00238717
0.00237394
0.00235986
0.00234496
0.00232926
0.00231278
0.00229554
0.00227757
0.00225889
0.00223953
0.00221951
0.00219887
0.00217762
0.0021558
0.00213343
0.00211055
0.00208718
0.00206335
0.00203909
0.00201443
0.00198941
0.00196404
0.00193836
0.0019124
0.00188618
0.00185975
0.00183311
0.00180631
0.00177937
0.00175231
0.00172517
0.00169797
0.00167073
0.00164348
0.00161624
0.00158904
0.0015619
0.00153484
0.00150788
0.00148104
0.00145435
0.00142781
0.00140145
0.00137528
0.00134932
0.00132359
0.00129809
0.00127285
0.00124787
0.00122316
0.00119874
0.00117461
0.00115079
0.00112728
0.00110409
0.00108123
0.0010587
0.0010365
0.00101465
0.000993145
0.000971986
0.000951178
0.000930723
0.000910622
0.000890876
0.000871486
0.000852451
0.00083377
0.000815443
0.000797468
0.000779844
0.000762567
0.000745636
0.000729048
0.0007128
0.000696888
0.000681309
0.000666059
0.000651134
0.00063653
0.000622243
0.000608268
0.000594601
0.000581237
0.000568171
0.000555399
0.000542916
0.000530716
0.000518796
0.000507149
0.000495771
0.000484657
0.000473801
0.0004632
0.000452847
0.000442739
0.000432869
0.000423234
0.000413827
0.000404645
0.000395683
0.000386936
0.000378399
0.000370068
0.000361938
0.000354005
0.000346264
0.000338712
0.000331343
0.000324153
0.00031714
0.000310297
0.000303622
0.000297111
0.000290759
0.000284564
0.000278521
0.000272626
0.000266877
0.000261269
0.0002558
0.000250466
0.000245263
0.000240189
0.000235241
0.000230415
0.000225709
0.000221119
0.000216643
0.000212277
0.000208021
0.000203869
0.000199821
0.000195873
0.000192024
0.000188269
0.000184608
0.000181039
0.000177557
0.000174163
0.000170852
0.000167624
0.000164476
0.000161407
0.000158413
0.000155495
0.000152648
0.000149873
0.000147166
0.000144527
0.000141954
0.000139444
0.000136997
0.000134611
0.000132284
0.000130015
0.000127802
0.000125645
0.000123541
0.000121489
0.000119488
0.000117537
0.000115635
0.00011378
0.000111971
0.000110206
0.000108486
0.000106809
0.000105173
0.000103578
0.000102022
0.000100505
9.9026e-05
9.75835e-05
9.61768e-05
9.48051e-05
9.34674e-05
9.21629e-05
9.08908e-05
8.96503e-05
8.84406e-05
8.7261e-05
8.61106e-05
8.49887e-05
8.38947e-05
8.28278e-05
8.17874e-05
8.07729e-05
7.97834e-05
7.88186e-05
7.78776e-05
7.696e-05
7.60652e-05
7.51925e-05
7.43415e-05
7.35116e-05
7.27022e-05
7.1913e-05
7.11432e-05
7.03926e-05
6.96606e-05
6.89467e-05
6.82505e-05
6.75715e-05
6.69094e-05
6.62637e-05
6.5634e-05
6.50198e-05
6.44209e-05
6.38369e-05
6.32673e-05
6.27118e-05
6.217e-05
6.16417e-05
6.11264e-05
6.0624e-05
6.01339e-05
5.9656e-05
5.91899e-05
5.87354e-05
5.82921e-05
5.78598e-05
5.74382e-05
5.7027e-05
5.6626e-05
5.62349e-05
5.58535e-05
5.54816e-05
5.51188e-05
5.4765e-05
5.442e-05
5.40835e-05
5.37553e-05
5.34353e-05
5.31232e-05
5.28188e-05
5.25219e-05
5.22324e-05
5.195e-05
5.16746e-05
5.1406e-05
5.11441e-05
5.08886e-05
5.06395e-05
5.03965e-05
5.01595e-05
4.99284e-05
4.9703e-05
4.94832e-05
4.92688e-05
4.90597e-05
4.88558e-05
4.8657e-05
4.8463e-05
4.82738e-05
4.80893e-05
4.79094e-05
4.77339e-05
4.75628e-05
4.73959e-05
4.72331e-05
4.70743e-05
4.69195e-05
4.67685e-05
4.66212e-05
4.64776e-05
4.63375e-05
4.62009e-05
4.60676e-05
4.59376e-05
4.58109e-05
4.56873e-05
4.55667e-05
4.54491e-05
4.53345e-05
4.52226e-05
4.51135e-05
4.50071e-05
4.49034e-05
4.48022e-05
4.47035e-05
4.46072e-05
4.45134e-05
4.44218e-05
4.43325e-05
4.42454e-05
4.41605e-05
4.40776e-05
4.39968e-05
4.3918e-05
4.38412e-05
4.37662e-05
4.36931e-05
4.36218e-05
4.35523e-05
4.34844e-05
4.34183e-05
4.33538e-05
4.32909e-05
4.32295e-05
4.31696e-05
4.31113e-05
4.30543e-05
4.29988e-05
4.29446e-05
4.28918e-05
4.28403e-05
4.27901e-05
4.27411e-05
4.26933e-05
4.26466e-05
4.26012e-05
4.25568e-05
4.25136e-05
4.24714e-05
4.24303e-05
4.23902e-05
4.2351e-05
4.23129e-05
4.22756e-05
4.22393e-05
4.22039e-05
4.21694e-05
4.21357e-05
4.21028e-05
4.20708e-05
4.20395e-05
4.20091e-05
4.19793e-05
4.19503e-05
4.19221e-05
4.18945e-05
4.18676e-05
4.18413e-05
4.18157e-05
4.17908e-05
4.17664e-05
4.17427e-05
4.17195e-05
4.1697e-05
4.16749e-05
4.16534e-05
4.16325e-05
4.1612e-05
4.15921e-05
4.15727e-05
4.15537e-05
4.15352e-05
4.15172e-05
4.14996e-05
4.14824e-05
4.14657e-05
4.14494e-05
4.14334e-05
4.14179e-05
4.14028e-05
4.1388e-05
4.13736e-05
4.13595e-05
4.13458e-05
4.13325e-05
4.13194e-05
4.13067e-05
4.12943e-05
4.12822e-05
4.12704e-05
4.12589e-05
4.12477e-05
4.12367e-05
4.12261e-05
4.12157e-05
4.12055e-05
4.11956e-05
4.11859e-05
4.11765e-05
4.11673e-05
4.11584e-05
4.11496e-05
4.11411e-05
4.11328e-05
4.11247e-05
4.11168e-05
4.11091e-05
4.11016e-05
4.10942e-05
4.10871e-05
4.10801e-05
4.10733e-05
4.10666e-05
4.10602e-05
4.10539e-05
4.10477e-05
4.10417e-05
4.10359e-05
4.10302e-05
4.10246e-05
4.10192e-05
4.10139e-05
4.10087e-05
4.10037e-05
4.09988e-05
4.0994e-05
4.09893e-05
4.09848e-05
4.09803e-05
4.0976e-05
4.09718e-05
4.09677e-05
4.09637e-05
4.09598e-05
4.0956e-05
4.09522e-05
4.09486e-05
4.09451e-05
4.09416e-05
4.09383e-05
4.0935e-05
4.09318e-05
4.09287e-05
4.09257e-05
4.09228e-05
4.09199e-05
4.09171e-05
4.09144e-05
4.09117e-05
4.09091e-05
4.09066e-05
4.09041e-05
4.09017e-05
4.08994e-05
4.08971e-05
4.08949e-05
4.08928e-05
4.08907e-05
4.08886e-05
4.08866e-05
4.08847e-05
4.08828e-05
4.0881e-05
4.08792e-05
4.08775e-05
4.08758e-05
4.08741e-05
4.08725e-05
4.0871e-05
4.08695e-05
4.0868e-05
4.08666e-05
4.08652e-05
4.08639e-05
4.08626e-05
4.08613e-05
4.08601e-05
4.08589e-05
4.08577e-05
4.08566e-05
4.08555e-05
4.08545e-05
4.08534e-05
4.08525e-05
4.08515e-05
4.08506e-05
4.08497e-05
4.08488e-05
4.0848e-05
4.08472e-05
4.08464e-05
4.08457e-05
4.08449e-05
4.08442e-05
4.08436e-05
4.08429e-05
4.08423e-05
4.08417e-05
4.08412e-05
4.08406e-05
4.08401e-05
4.08396e-05
4.08392e-05
4.08387e-05
4.08383e-05
4.08379e-05
4.08376e-05
4.08372e-05
4.08369e-05
4.08366e-05
4.08363e-05
4.08361e-05
4.08358e-05
4.08356e-05
4.08354e-05
4.08353e-05
4.08351e-05
4.0835e-05
4.08349e-05
4.08348e-05
4.08347e-05
4.08347e-05
4.08346e-05
0.00247203
0.00247103
0.00246905
0.00246608
0.00246212
0.00245718
0.00245128
0.00244441
0.00243659
0.00242783
0.00241814
0.00240754
0.00239604
0.00238366
0.00237041
0.00235633
0.00234142
0.00232571
0.00230922
0.00229197
0.00227399
0.0022553
0.00223593
0.0022159
0.00219524
0.00217399
0.00215216
0.00212978
0.00210689
0.00208351
0.00205968
0.00203541
0.00201075
0.00198572
0.00196035
0.00193467
0.0019087
0.00188249
0.00185605
0.00182942
0.00180262
0.00177568
0.00174863
0.0017215
0.0016943
0.00166708
0.00163984
0.00161262
0.00158543
0.0015583
0.00153126
0.00150432
0.0014775
0.00145083
0.00142432
0.00139798
0.00137184
0.00134591
0.0013202
0.00129474
0.00126952
0.00124457
0.0012199
0.00119551
0.00117142
0.00114764
0.00112416
0.00110101
0.00107819
0.00105569
0.00103354
0.00101173
0.000990261
0.000969144
0.000948378
0.000927965
0.000907907
0.000888204
0.000868857
0.000849864
0.000831227
0.000812943
0.000795011
0.00077743
0.000760196
0.000743308
0.000726763
0.000710557
0.000694687
0.00067915
0.000663941
0.000649057
0.000634494
0.000620247
0.000606312
0.000592684
0.000579359
0.000566332
0.000553598
0.000541152
0.000528989
0.000517105
0.000505494
0.000494151
0.000483071
0.00047225
0.000461681
0.000451362
0.000441285
0.000431447
0.000421842
0.000412466
0.000403314
0.000394381
0.000385663
0.000377154
0.00036885
0.000360747
0.00035284
0.000345125
0.000337598
0.000330253
0.000323088
0.000316098
0.000309278
0.000302626
0.000296137
0.000289807
0.000283632
0.000277609
0.000271735
0.000266005
0.000260417
0.000254966
0.00024965
0.000244465
0.000239409
0.000234478
0.000229668
0.000224978
0.000220404
0.000215943
0.000211593
0.000207351
0.000203214
0.00019918
0.000195246
0.000191409
0.000187668
0.00018402
0.000180462
0.000176993
0.00017361
0.000170311
0.000167094
0.000163957
0.000160898
0.000157916
0.000155007
0.000152171
0.000149405
0.000146708
0.000144078
0.000141513
0.000139012
0.000136574
0.000134196
0.000131877
0.000129616
0.000127411
0.00012526
0.000123164
0.000121119
0.000119126
0.000117181
0.000115286
0.000113437
0.000111634
0.000109876
0.000108162
0.00010649
0.00010486
0.00010327
0.00010172
0.000100209
9.87344e-05
9.72969e-05
9.58952e-05
9.45282e-05
9.31952e-05
9.18952e-05
9.06276e-05
8.93914e-05
8.81859e-05
8.70103e-05
8.58639e-05
8.47459e-05
8.36557e-05
8.25926e-05
8.15558e-05
8.05447e-05
7.95587e-05
7.85972e-05
7.76595e-05
7.67451e-05
7.58534e-05
7.49837e-05
7.41357e-05
7.33086e-05
7.25021e-05
7.17155e-05
7.09485e-05
7.02005e-05
6.9471e-05
6.87596e-05
6.80658e-05
6.73892e-05
6.67294e-05
6.60859e-05
6.54583e-05
6.48463e-05
6.42495e-05
6.36675e-05
6.30998e-05
6.25463e-05
6.20064e-05
6.14799e-05
6.09664e-05
6.04657e-05
5.99774e-05
5.95011e-05
5.90366e-05
5.85837e-05
5.81419e-05
5.77111e-05
5.72909e-05
5.68812e-05
5.64816e-05
5.60919e-05
5.57118e-05
5.53411e-05
5.49796e-05
5.46271e-05
5.42832e-05
5.39479e-05
5.36209e-05
5.33019e-05
5.29909e-05
5.26875e-05
5.23917e-05
5.21031e-05
5.18218e-05
5.15473e-05
5.12797e-05
5.10186e-05
5.07641e-05
5.05158e-05
5.02737e-05
5.00375e-05
4.98072e-05
4.95826e-05
4.93635e-05
4.91499e-05
4.89415e-05
4.87383e-05
4.85401e-05
4.83468e-05
4.81583e-05
4.79745e-05
4.77952e-05
4.76203e-05
4.74498e-05
4.72834e-05
4.71212e-05
4.6963e-05
4.68087e-05
4.66582e-05
4.65114e-05
4.63683e-05
4.62287e-05
4.60925e-05
4.59597e-05
4.58302e-05
4.57039e-05
4.55807e-05
4.54606e-05
4.53434e-05
4.52291e-05
4.51177e-05
4.50089e-05
4.49029e-05
4.47995e-05
4.46987e-05
4.46003e-05
4.45044e-05
4.44109e-05
4.43196e-05
4.42306e-05
4.41438e-05
4.40592e-05
4.39766e-05
4.38961e-05
4.38176e-05
4.3741e-05
4.36663e-05
4.35934e-05
4.35224e-05
4.34531e-05
4.33855e-05
4.33196e-05
4.32553e-05
4.31926e-05
4.31314e-05
4.30718e-05
4.30136e-05
4.29569e-05
4.29015e-05
4.28476e-05
4.27949e-05
4.27436e-05
4.26935e-05
4.26447e-05
4.2597e-05
4.25506e-05
4.25053e-05
4.24611e-05
4.2418e-05
4.2376e-05
4.2335e-05
4.2295e-05
4.2256e-05
4.2218e-05
4.21809e-05
4.21447e-05
4.21094e-05
4.2075e-05
4.20414e-05
4.20087e-05
4.19767e-05
4.19456e-05
4.19152e-05
4.18856e-05
4.18567e-05
4.18285e-05
4.1801e-05
4.17742e-05
4.17481e-05
4.17226e-05
4.16977e-05
4.16734e-05
4.16498e-05
4.16267e-05
4.16042e-05
4.15822e-05
4.15608e-05
4.15399e-05
4.15196e-05
4.14997e-05
4.14803e-05
4.14614e-05
4.1443e-05
4.1425e-05
4.14075e-05
4.13904e-05
4.13737e-05
4.13574e-05
4.13416e-05
4.13261e-05
4.1311e-05
4.12963e-05
4.12819e-05
4.12679e-05
4.12543e-05
4.12409e-05
4.1228e-05
4.12153e-05
4.12029e-05
4.11909e-05
4.11791e-05
4.11676e-05
4.11565e-05
4.11456e-05
4.11349e-05
4.11245e-05
4.11144e-05
4.11046e-05
4.10949e-05
4.10855e-05
4.10764e-05
4.10675e-05
4.10587e-05
4.10503e-05
4.1042e-05
4.10339e-05
4.1026e-05
4.10183e-05
4.10108e-05
4.10035e-05
4.09964e-05
4.09894e-05
4.09827e-05
4.09761e-05
4.09696e-05
4.09633e-05
4.09572e-05
4.09512e-05
4.09454e-05
4.09397e-05
4.09341e-05
4.09287e-05
4.09234e-05
4.09183e-05
4.09133e-05
4.09084e-05
4.09036e-05
4.0899e-05
4.08944e-05
4.089e-05
4.08857e-05
4.08815e-05
4.08774e-05
4.08734e-05
4.08695e-05
4.08657e-05
4.0862e-05
4.08584e-05
4.08549e-05
4.08515e-05
4.08481e-05
4.08449e-05
4.08417e-05
4.08386e-05
4.08356e-05
4.08327e-05
4.08298e-05
4.0827e-05
4.08243e-05
4.08216e-05
4.08191e-05
4.08165e-05
4.08141e-05
4.08117e-05
4.08094e-05
4.08071e-05
4.08049e-05
4.08028e-05
4.08007e-05
4.07986e-05
4.07967e-05
4.07947e-05
4.07929e-05
4.0791e-05
4.07893e-05
4.07875e-05
4.07858e-05
4.07842e-05
4.07826e-05
4.07811e-05
4.07796e-05
4.07781e-05
4.07767e-05
4.07753e-05
4.0774e-05
4.07727e-05
4.07714e-05
4.07702e-05
4.0769e-05
4.07678e-05
4.07667e-05
4.07656e-05
4.07646e-05
4.07636e-05
4.07626e-05
4.07616e-05
4.07607e-05
4.07598e-05
4.0759e-05
4.07581e-05
4.07573e-05
4.07566e-05
4.07558e-05
4.07551e-05
4.07544e-05
4.07537e-05
4.07531e-05
4.07525e-05
4.07519e-05
4.07514e-05
4.07508e-05
4.07503e-05
4.07498e-05
4.07494e-05
4.07489e-05
4.07485e-05
4.07481e-05
4.07478e-05
4.07474e-05
4.07471e-05
4.07468e-05
4.07465e-05
4.07463e-05
4.0746e-05
4.07458e-05
4.07456e-05
4.07455e-05
4.07453e-05
4.07452e-05
4.07451e-05
4.0745e-05
4.07449e-05
4.07449e-05
4.07448e-05
0.00246959
0.00246859
0.0024666
0.00246362
0.00245965
0.00245471
0.00244879
0.0024419
0.00243406
0.00242528
0.00241557
0.00240495
0.00239342
0.00238102
0.00236775
0.00235363
0.00233869
0.00232295
0.00230642
0.00228914
0.00227112
0.0022524
0.00223299
0.00221292
0.00219223
0.00217094
0.00214907
0.00212666
0.00210373
0.00208031
0.00205644
0.00203214
0.00200744
0.00198238
0.00195697
0.00193126
0.00190527
0.00187902
0.00185256
0.0018259
0.00179908
0.00177212
0.00174505
0.00171789
0.00169068
0.00166344
0.00163619
0.00160895
0.00158176
0.00155463
0.00152758
0.00150064
0.00147382
0.00144715
0.00142064
0.00139432
0.00136818
0.00134227
0.00131657
0.00129112
0.00126593
0.001241
0.00121635
0.00119199
0.00116792
0.00114416
0.00112072
0.0010976
0.00107481
0.00105235
0.00103023
0.00100846
0.000987028
0.000965949
0.000945223
0.000924851
0.000904835
0.000885174
0.00086587
0.000846922
0.000828329
0.000810089
0.000792203
0.000774666
0.000757478
0.000740636
0.000724136
0.000707976
0.000692152
0.00067666
0.000661497
0.000646659
0.00063214
0.000617938
0.000604048
0.000590464
0.000577183
0.000564199
0.000551507
0.000539103
0.000526982
0.000515139
0.000503569
0.000492266
0.000481226
0.000470443
0.000459913
0.000449631
0.000439592
0.00042979
0.000420221
0.00041088
0.000401763
0.000392864
0.000384178
0.000375702
0.00036743
0.000359359
0.000351482
0.000343797
0.000336299
0.000328984
0.000321847
0.000314884
0.000308092
0.000301466
0.000295002
0.000288698
0.000282548
0.000276549
0.000270698
0.000264992
0.000259426
0.000253997
0.000248703
0.000243539
0.000238503
0.000233592
0.000228802
0.000224131
0.000219575
0.000215133
0.000210801
0.000206576
0.000202456
0.000198438
0.00019452
0.000190699
0.000186973
0.00018334
0.000179797
0.000176342
0.000172973
0.000169688
0.000166484
0.00016336
0.000160314
0.000157343
0.000154447
0.000151622
0.000148867
0.000146181
0.000143562
0.000141008
0.000138518
0.000136089
0.000133721
0.000131412
0.00012916
0.000126964
0.000124823
0.000122735
0.000120699
0.000118713
0.000116777
0.000114889
0.000113048
0.000111253
0.000109502
0.000107795
0.00010613
0.000104506
0.000102923
0.00010138
9.98742e-05
9.84062e-05
9.69746e-05
9.55786e-05
9.42173e-05
9.28897e-05
9.15952e-05
9.03327e-05
8.91016e-05
8.79011e-05
8.67304e-05
8.55887e-05
8.44753e-05
8.33896e-05
8.23308e-05
8.12983e-05
8.02914e-05
7.93095e-05
7.83519e-05
7.74181e-05
7.65075e-05
7.56194e-05
7.47533e-05
7.39088e-05
7.30851e-05
7.22819e-05
7.14986e-05
7.07347e-05
6.99898e-05
6.92633e-05
6.85548e-05
6.78639e-05
6.719e-05
6.65329e-05
6.58921e-05
6.52671e-05
6.46577e-05
6.40633e-05
6.34836e-05
6.29183e-05
6.2367e-05
6.18294e-05
6.13051e-05
6.07937e-05
6.0295e-05
5.98087e-05
5.93344e-05
5.88718e-05
5.84207e-05
5.79808e-05
5.75518e-05
5.71333e-05
5.67253e-05
5.63273e-05
5.59392e-05
5.55606e-05
5.51915e-05
5.48315e-05
5.44804e-05
5.4138e-05
5.3804e-05
5.34783e-05
5.31607e-05
5.28509e-05
5.25488e-05
5.22542e-05
5.19668e-05
5.16866e-05
5.14133e-05
5.11467e-05
5.08868e-05
5.06333e-05
5.0386e-05
5.01449e-05
4.99097e-05
4.96803e-05
4.94566e-05
4.92385e-05
4.90257e-05
4.88182e-05
4.86158e-05
4.84184e-05
4.82259e-05
4.80382e-05
4.78551e-05
4.76765e-05
4.75024e-05
4.73325e-05
4.71669e-05
4.70053e-05
4.68478e-05
4.66941e-05
4.65442e-05
4.6398e-05
4.62555e-05
4.61165e-05
4.59809e-05
4.58486e-05
4.57196e-05
4.55938e-05
4.54712e-05
4.53515e-05
4.52348e-05
4.5121e-05
4.501e-05
4.49017e-05
4.47962e-05
4.46932e-05
4.45927e-05
4.44948e-05
4.43993e-05
4.43061e-05
4.42152e-05
4.41266e-05
4.40402e-05
4.39559e-05
4.38736e-05
4.37935e-05
4.37152e-05
4.3639e-05
4.35646e-05
4.3492e-05
4.34213e-05
4.33522e-05
4.32849e-05
4.32193e-05
4.31553e-05
4.30928e-05
4.30319e-05
4.29725e-05
4.29146e-05
4.28581e-05
4.28029e-05
4.27492e-05
4.26968e-05
4.26457e-05
4.25958e-05
4.25472e-05
4.24997e-05
4.24535e-05
4.24083e-05
4.23643e-05
4.23214e-05
4.22795e-05
4.22387e-05
4.21989e-05
4.21601e-05
4.21222e-05
4.20852e-05
4.20492e-05
4.20141e-05
4.19798e-05
4.19463e-05
4.19137e-05
4.18819e-05
4.18509e-05
4.18207e-05
4.17912e-05
4.17624e-05
4.17343e-05
4.1707e-05
4.16803e-05
4.16542e-05
4.16288e-05
4.1604e-05
4.15799e-05
4.15563e-05
4.15333e-05
4.15109e-05
4.14891e-05
4.14677e-05
4.14469e-05
4.14267e-05
4.14069e-05
4.13876e-05
4.13687e-05
4.13504e-05
4.13325e-05
4.1315e-05
4.1298e-05
4.12814e-05
4.12652e-05
4.12494e-05
4.1234e-05
4.12189e-05
4.12043e-05
4.119e-05
4.1176e-05
4.11624e-05
4.11492e-05
4.11362e-05
4.11236e-05
4.11113e-05
4.10993e-05
4.10876e-05
4.10762e-05
4.1065e-05
4.10542e-05
4.10436e-05
4.10332e-05
4.10232e-05
4.10133e-05
4.10037e-05
4.09944e-05
4.09853e-05
4.09764e-05
4.09677e-05
4.09593e-05
4.0951e-05
4.0943e-05
4.09351e-05
4.09275e-05
4.092e-05
4.09127e-05
4.09056e-05
4.08987e-05
4.08919e-05
4.08854e-05
4.08789e-05
4.08727e-05
4.08666e-05
4.08606e-05
4.08548e-05
4.08491e-05
4.08436e-05
4.08382e-05
4.0833e-05
4.08278e-05
4.08229e-05
4.0818e-05
4.08132e-05
4.08086e-05
4.08041e-05
4.07997e-05
4.07954e-05
4.07912e-05
4.07871e-05
4.07831e-05
4.07793e-05
4.07755e-05
4.07718e-05
4.07682e-05
4.07647e-05
4.07613e-05
4.0758e-05
4.07547e-05
4.07516e-05
4.07485e-05
4.07455e-05
4.07425e-05
4.07397e-05
4.07369e-05
4.07342e-05
4.07316e-05
4.0729e-05
4.07265e-05
4.07241e-05
4.07217e-05
4.07194e-05
4.07171e-05
4.07149e-05
4.07128e-05
4.07107e-05
4.07087e-05
4.07067e-05
4.07048e-05
4.07029e-05
4.07011e-05
4.06993e-05
4.06976e-05
4.06959e-05
4.06943e-05
4.06927e-05
4.06912e-05
4.06897e-05
4.06882e-05
4.06868e-05
4.06854e-05
4.06841e-05
4.06828e-05
4.06815e-05
4.06803e-05
4.06791e-05
4.0678e-05
4.06769e-05
4.06758e-05
4.06748e-05
4.06737e-05
4.06728e-05
4.06718e-05
4.06709e-05
4.067e-05
4.06692e-05
4.06683e-05
4.06675e-05
4.06668e-05
4.0666e-05
4.06653e-05
4.06646e-05
4.0664e-05
4.06633e-05
4.06627e-05
4.06621e-05
4.06616e-05
4.0661e-05
4.06605e-05
4.06601e-05
4.06596e-05
4.06592e-05
4.06587e-05
4.06584e-05
4.0658e-05
4.06576e-05
4.06573e-05
4.0657e-05
4.06567e-05
4.06565e-05
4.06563e-05
4.0656e-05
4.06559e-05
4.06557e-05
4.06555e-05
4.06554e-05
4.06553e-05
4.06552e-05
4.06551e-05
4.06551e-05
4.06551e-05
0.00246816
0.00246716
0.00246516
0.00246217
0.00245819
0.00245322
0.00244728
0.00244037
0.0024325
0.00242368
0.00241394
0.00240327
0.00239171
0.00237925
0.00236594
0.00235177
0.00233677
0.00232098
0.00230439
0.00228705
0.00226897
0.00225019
0.00223071
0.00221059
0.00218983
0.00216847
0.00214653
0.00212405
0.00210106
0.00207757
0.00205364
0.00202927
0.00200451
0.00197938
0.00195391
0.00192814
0.00190208
0.00187578
0.00184926
0.00182255
0.00179567
0.00176866
0.00174154
0.00171434
0.00168709
0.00165981
0.00163252
0.00160525
0.00157803
0.00155087
0.0015238
0.00149684
0.00147
0.00144331
0.00141679
0.00139046
0.00136432
0.0013384
0.0013127
0.00128726
0.00126207
0.00123715
0.00121251
0.00118816
0.00116411
0.00114038
0.00111696
0.00109386
0.00107109
0.00104867
0.00102658
0.00100483
0.000983441
0.000962399
0.000941712
0.000921379
0.000901404
0.000881786
0.000862525
0.000843621
0.000825073
0.00080688
0.000789041
0.000771552
0.000754412
0.000737618
0.000721167
0.000705056
0.000689281
0.000673839
0.000658726
0.000643937
0.000629468
0.000615315
0.000601474
0.000587939
0.000574706
0.00056177
0.000549126
0.00053677
0.000524696
0.000512899
0.000501374
0.000490116
0.000479121
0.000468382
0.000457896
0.000447656
0.000437659
0.000427898
0.00041837
0.000409069
0.000399991
0.000391131
0.000382483
0.000374044
0.000365809
0.000357773
0.000349932
0.000342281
0.000334817
0.000327535
0.00032043
0.000313499
0.000306738
0.000300142
0.000293708
0.000287432
0.000281311
0.00027534
0.000269516
0.000263836
0.000258296
0.000252893
0.000247623
0.000242484
0.000237471
0.000232583
0.000227816
0.000223167
0.000218633
0.000214211
0.0002099
0.000205695
0.000201594
0.000197595
0.000193696
0.000189894
0.000186185
0.000182569
0.000179043
0.000175605
0.000172252
0.000168982
0.000165794
0.000162685
0.000159653
0.000156696
0.000153814
0.000151002
0.000148261
0.000145588
0.000142981
0.00014044
0.000137961
0.000135544
0.000133187
0.000130889
0.000128648
0.000126462
0.000124331
0.000122253
0.000120227
0.000118251
0.000116324
0.000114445
0.000112613
0.000110826
0.000109084
0.000107385
0.000105728
0.000104112
0.000102537
0.000101
9.95022e-05
9.80412e-05
9.66165e-05
9.52271e-05
9.38723e-05
9.25511e-05
9.12627e-05
9.00063e-05
8.87811e-05
8.75863e-05
8.64212e-05
8.5285e-05
8.41769e-05
8.30964e-05
8.20427e-05
8.10151e-05
8.0013e-05
7.90358e-05
7.80828e-05
7.71534e-05
7.62471e-05
7.53633e-05
7.45014e-05
7.36608e-05
7.28411e-05
7.20417e-05
7.12622e-05
7.05019e-05
6.97605e-05
6.90375e-05
6.83324e-05
6.76447e-05
6.69741e-05
6.63202e-05
6.56824e-05
6.50604e-05
6.44538e-05
6.38623e-05
6.32854e-05
6.27228e-05
6.21741e-05
6.1639e-05
6.11172e-05
6.06083e-05
6.0112e-05
5.9628e-05
5.91559e-05
5.86956e-05
5.82466e-05
5.78088e-05
5.73818e-05
5.69653e-05
5.65592e-05
5.61631e-05
5.57768e-05
5.54001e-05
5.50327e-05
5.46744e-05
5.4325e-05
5.39842e-05
5.36518e-05
5.33277e-05
5.30116e-05
5.27033e-05
5.24026e-05
5.21094e-05
5.18234e-05
5.15445e-05
5.12725e-05
5.10072e-05
5.07485e-05
5.04962e-05
5.02501e-05
5.00101e-05
4.9776e-05
4.95478e-05
4.93251e-05
4.9108e-05
4.88963e-05
4.86897e-05
4.84883e-05
4.82919e-05
4.81003e-05
4.79135e-05
4.77312e-05
4.75535e-05
4.73802e-05
4.72111e-05
4.70463e-05
4.68855e-05
4.67287e-05
4.65757e-05
4.64266e-05
4.62811e-05
4.61392e-05
4.60008e-05
4.58659e-05
4.57343e-05
4.56059e-05
4.54807e-05
4.53586e-05
4.52395e-05
4.51234e-05
4.50101e-05
4.48996e-05
4.47919e-05
4.46868e-05
4.45843e-05
4.44844e-05
4.43869e-05
4.42918e-05
4.41991e-05
4.41086e-05
4.40204e-05
4.39344e-05
4.38505e-05
4.37687e-05
4.36889e-05
4.3611e-05
4.35351e-05
4.34611e-05
4.33889e-05
4.33184e-05
4.32497e-05
4.31828e-05
4.31174e-05
4.30537e-05
4.29915e-05
4.29309e-05
4.28718e-05
4.28141e-05
4.27579e-05
4.27031e-05
4.26496e-05
4.25974e-05
4.25465e-05
4.24969e-05
4.24485e-05
4.24013e-05
4.23552e-05
4.23103e-05
4.22665e-05
4.22238e-05
4.21821e-05
4.21415e-05
4.21019e-05
4.20632e-05
4.20255e-05
4.19887e-05
4.19529e-05
4.19179e-05
4.18838e-05
4.18505e-05
4.18181e-05
4.17864e-05
4.17555e-05
4.17254e-05
4.16961e-05
4.16674e-05
4.16395e-05
4.16123e-05
4.15857e-05
4.15598e-05
4.15345e-05
4.15098e-05
4.14858e-05
4.14623e-05
4.14395e-05
4.14172e-05
4.13954e-05
4.13742e-05
4.13535e-05
4.13333e-05
4.13136e-05
4.12944e-05
4.12757e-05
4.12574e-05
4.12396e-05
4.12222e-05
4.12052e-05
4.11887e-05
4.11726e-05
4.11569e-05
4.11415e-05
4.11266e-05
4.1112e-05
4.10977e-05
4.10839e-05
4.10703e-05
4.10571e-05
4.10442e-05
4.10317e-05
4.10194e-05
4.10075e-05
4.09958e-05
4.09845e-05
4.09734e-05
4.09626e-05
4.0952e-05
4.09417e-05
4.09317e-05
4.09219e-05
4.09124e-05
4.09031e-05
4.0894e-05
4.08851e-05
4.08765e-05
4.08681e-05
4.08599e-05
4.08519e-05
4.08441e-05
4.08365e-05
4.0829e-05
4.08218e-05
4.08147e-05
4.08078e-05
4.08011e-05
4.07945e-05
4.07882e-05
4.07819e-05
4.07758e-05
4.07699e-05
4.07641e-05
4.07585e-05
4.0753e-05
4.07476e-05
4.07424e-05
4.07373e-05
4.07323e-05
4.07275e-05
4.07228e-05
4.07182e-05
4.07137e-05
4.07093e-05
4.0705e-05
4.07008e-05
4.06968e-05
4.06928e-05
4.0689e-05
4.06852e-05
4.06815e-05
4.0678e-05
4.06745e-05