/*--------------------------------*- C++ -*----------------------------------*\
| =========                 |                                                 |
| \\      /  F ield         | OpenFOAM: The Open Source CFD Toolbox           |
|  \\    /   O peration     | Version:  v2012                                 |
|   \\  /    A nd           | Website:  www.openfoam.com                      |
|    \\/     M anipulation  |                                                 |
\*---------------------------------------------------------------------------*/
FoamFile
{
    version     2.0;
    format      ascii;
    class       volScalarField;
    location    "0";
    object      T;
}
// * * * * * * * * * * * * * * * * * * * * * * * * * * * * * * * * * * * * * //

dimensions      [0 0 0 1 0 0 0];


internalField   nonuniform List<scalar> 
12800
(
300
300
300
300
300
300
300
300
300
300
300
300
300
300
300
300
300
300
300
300
300
300
300
300
300
300
300
300
300
300
300
300
300
300
300
300
300
300
300
300
300
300
300
300
300
300
300
300
300
300
300
300
300
300
300
300
300
300
300
300
300
300
300
300
300
300
300
300
300
300
300
300
300
300
300
300
300
300
300
300
299.449
299.448
299.445
299.44
299.433
299.424
299.413
299.401
299.387
299.387
299.387
299.387
299.387
299.387
299.387
299.387
299.387
299.387
299.387
299.387
299.387
299.387
299.387
299.387
299.387
299.387
299.387
299.387
299.387
299.387
299.387
299.387
299.387
299.387
299.387
299.387
299.387
299.387
299.387
299.387
299.387
299.387
299.387
299.387
299.387
299.387
299.387
299.387
299.387
299.387
299.387
299.387
299.387
299.387
299.387
299.387
299.387
299.387
299.387
299.387
299.387
299.387
299.387
299.387
299.387
299.387
299.387
299.387
299.387
299.387
299.387
299.387
299.387
299.387
299.387
299.387
299.387
299.387
299.387
299.387
298.899
298.898
298.895
298.889
298.882
298.873
298.862
298.848
298.833
298.816
298.797
298.777
298.774
298.774
298.774
298.774
298.774
298.774
298.774
298.774
298.774
298.774
298.774
298.774
298.774
298.774
298.774
298.774
298.774
298.774
298.774
298.774
298.774
298.774
298.774
298.774
298.774
298.774
298.774
298.774
298.774
298.774
298.774
298.774
298.774
298.774
298.774
298.774
298.774
298.774
298.774
298.774
298.774
298.774
298.774
298.774
298.774
298.774
298.774
298.774
298.774
298.774
298.774
298.774
298.774
298.774
298.774
298.774
298.774
298.774
298.774
298.774
298.774
298.774
298.774
298.774
298.774
298.774
298.774
298.774
298.348
298.347
298.344
298.338
298.331
298.321
298.31
298.296
298.28
298.263
298.243
298.222
298.199
298.174
298.161
298.161
298.161
298.161
298.161
298.161
298.161
298.161
298.161
298.161
298.161
298.161
298.161
298.161
298.161
298.161
298.161
298.161
298.161
298.161
298.161
298.161
298.161
298.161
298.161
298.161
298.161
298.161
298.161
298.161
298.161
298.161
298.161
298.161
298.161
298.161
298.161
298.161
298.161
298.161
298.161
298.161
298.161
298.161
298.161
298.161
298.161
298.161
298.161
298.161
298.161
298.161
298.161
298.161
298.161
298.161
298.161
298.161
298.161
298.161
298.161
298.161
298.161
298.161
298.161
298.161
297.798
297.796
297.793
297.787
297.78
297.77
297.758
297.744
297.727
297.709
297.689
297.667
297.644
297.618
297.591
297.562
297.548
297.548
297.548
297.548
297.548
297.548
297.548
297.548
297.548
297.548
297.548
297.548
297.548
297.548
297.548
297.548
297.548
297.548
297.548
297.548
297.548
297.548
297.548
297.548
297.548
297.548
297.548
297.548
297.548
297.548
297.548
297.548
297.548
297.548
297.548
297.548
297.548
297.548
297.548
297.548
297.548
297.548
297.548
297.548
297.548
297.548
297.548
297.548
297.548
297.548
297.548
297.548
297.548
297.548
297.548
297.548
297.548
297.548
297.548
297.548
297.548
297.548
297.548
297.548
297.247
297.246
297.242
297.236
297.228
297.218
297.206
297.191
297.174
297.156
297.135
297.112
297.088
297.061
297.034
297.004
296.973
296.94
296.934
296.934
296.934
296.934
296.934
296.934
296.934
296.934
296.934
296.934
296.934
296.934
296.934
296.934
296.934
296.934
296.934
296.934
296.934
296.934
296.934
296.934
296.934
296.934
296.934
296.934
296.934
296.934
296.934
296.934
296.934
296.934
296.934
296.934
296.934
296.934
296.934
296.934
296.934
296.934
296.934
296.934
296.934
296.934
296.934
296.934
296.934
296.934
296.934
296.934
296.934
296.934
296.934
296.934
296.934
296.934
296.934
296.934
296.934
296.934
296.934
296.934
296.696
296.695
296.691
296.685
296.677
296.666
296.654
296.638
296.621
296.602
296.58
296.557
296.532
296.504
296.476
296.445
296.413
296.38
296.345
296.321
296.321
296.321
296.321
296.321
296.321
296.321
296.321
296.321
296.321
296.321
296.321
296.321
296.321
296.321
296.321
296.321
296.321
296.321
296.321
296.321
296.321
296.321
296.321
296.321
296.321
296.321
296.321
296.321
296.321
296.321
296.321
296.321
296.321
296.321
296.321
296.321
296.321
296.321
296.321
296.321
296.321
296.321
296.321
296.321
296.321
296.321
296.321
296.321
296.321
296.321
296.321
296.321
296.321
296.321
296.321
296.321
296.321
296.321
296.321
296.321
296.146
296.144
296.141
296.134
296.126
296.115
296.101
296.086
296.068
296.047
296.025
296.001
295.975
295.947
295.917
295.886
295.853
295.819
295.783
295.746
295.708
295.708
295.708
295.708
295.708
295.708
295.708
295.708
295.708
295.708
295.708
295.708
295.708
295.708
295.708
295.708
295.708
295.708
295.708
295.708
295.708
295.708
295.708
295.708
295.708
295.708
295.708
295.708
295.708
295.708
295.708
295.708
295.708
295.708
295.708
295.708
295.708
295.708
295.708
295.708
295.708
295.708
295.708
295.708
295.708
295.708
295.708
295.708
295.708
295.708
295.708
295.708
295.708
295.708
295.708
295.708
295.708
295.708
295.708
295.708
295.595
295.594
295.59
295.583
295.574
295.563
295.549
295.533
295.514
295.493
295.47
295.445
295.418
295.389
295.358
295.326
295.292
295.257
295.22
295.182
295.142
295.102
295.095
295.095
295.095
295.095
295.095
295.095
295.095
295.095
295.095
295.095
295.095
295.095
295.095
295.095
295.095
295.095
295.095
295.095
295.095
295.095
295.095
295.095
295.095
295.095
295.095
295.095
295.095
295.095
295.095
295.095
295.095
295.095
295.095
295.095
295.095
295.095
295.095
295.095
295.095
295.095
295.095
295.095
295.095
295.095
295.095
295.095
295.095
295.095
295.095
295.095
295.095
295.095
295.095
295.095
295.095
295.095
295.095
295.095
295.044
295.043
295.039
295.032
295.023
295.011
294.996
294.979
294.96
294.938
294.914
294.888
294.86
294.831
294.799
294.766
294.731
294.694
294.656
294.617
294.577
294.535
294.493
294.482
294.482
294.482
294.482
294.482
294.482
294.482
294.482
294.482
294.482
294.482
294.482
294.482
294.482
294.482
294.482
294.482
294.482
294.482
294.482
294.482
294.482
294.482
294.482
294.482
294.482
294.482
294.482
294.482
294.482
294.482
294.482
294.482
294.482
294.482
294.482
294.482
294.482
294.482
294.482
294.482
294.482
294.482
294.482
294.482
294.482
294.482
294.482
294.482
294.482
294.482
294.482
294.482
294.482
294.482
294.482
294.482
294.494
294.492
294.488
294.481
294.471
294.459
294.444
294.426
294.406
294.383
294.358
294.331
294.303
294.272
294.239
294.205
294.169
294.131
294.092
294.052
294.01
293.968
293.924
293.88
293.869
293.869
293.869
293.869
293.869
293.869
293.869
293.869
293.869
293.869
293.869
293.869
293.869
293.869
293.869
293.869
293.869
293.869
293.869
293.869
293.869
293.869
293.869
293.869
293.869
293.869
293.869
293.869
293.869
293.869
293.869
293.869
293.869
293.869
293.869
293.869
293.869
293.869
293.869
293.869
293.869
293.869
293.869
293.869
293.869
293.869
293.869
293.869
293.869
293.869
293.869
293.869
293.869
293.869
293.869
293.869
293.943
293.942
293.937
293.93
293.92
293.906
293.891
293.872
293.851
293.828
293.802
293.774
293.744
293.712
293.678
293.643
293.606
293.567
293.527
293.486
293.443
293.399
293.355
293.309
293.262
293.256
293.256
293.256
293.256
293.256
293.256
293.256
293.256
293.256
293.256
293.256
293.256
293.256
293.256
293.256
293.256
293.256
293.256
293.256
293.256
293.256
293.256
293.256
293.256
293.256
293.256
293.256
293.256
293.256
293.256
293.256
293.256
293.256
293.256
293.256
293.256
293.256
293.256
293.256
293.256
293.256
293.256
293.256
293.256
293.256
293.256
293.256
293.256
293.256
293.256
293.256
293.256
293.256
293.256
293.256
293.392
293.391
293.386
293.379
293.368
293.354
293.337
293.318
293.296
293.272
293.245
293.216
293.185
293.152
293.117
293.08
293.042
293.002
292.961
292.918
292.875
292.83
292.784
292.738
292.69
292.642
292.642
292.642
292.642
292.642
292.642
292.642
292.642
292.642
292.642
292.642
292.642
292.642
292.642
292.642
292.642
292.642
292.642
292.642
292.642
292.642
292.642
292.642
292.642
292.642
292.642
292.642
292.642
292.642
292.642
292.642
292.642
292.642
292.642
292.642
292.642
292.642
292.642
292.642
292.642
292.642
292.642
292.642
292.642
292.642
292.642
292.642
292.642
292.642
292.642
292.642
292.642
292.642
292.642
292.642
292.842
292.84
292.835
292.827
292.816
292.801
292.784
292.764
292.741
292.715
292.687
292.657
292.625
292.591
292.554
292.516
292.477
292.436
292.394
292.35
292.305
292.259
292.213
292.165
292.116
292.067
292.029
292.029
292.029
292.029
292.029
292.029
292.029
292.029
292.029
292.029
292.029
292.029
292.029
292.029
292.029
292.029
292.029
292.029
292.029
292.029
292.029
292.029
292.029
292.029
292.029
292.029
292.029
292.029
292.029
292.029
292.029
292.029
292.029
292.029
292.029
292.029
292.029
292.029
292.029
292.029
292.029
292.029
292.029
292.029
292.029
292.029
292.029
292.029
292.029
292.029
292.029
292.029
292.029
292.029
292.291
292.29
292.284
292.276
292.264
292.249
292.23
292.209
292.185
292.158
292.129
292.098
292.064
292.029
291.991
291.952
291.911
291.869
291.825
291.78
291.735
291.688
291.64
291.591
291.541
291.491
291.44
291.416
291.416
291.416
291.416
291.416
291.416
291.416
291.416
291.416
291.416
291.416
291.416
291.416
291.416
291.416
291.416
291.416
291.416
291.416
291.416
291.416
291.416
291.416
291.416
291.416
291.416
291.416
291.416
291.416
291.416
291.416
291.416
291.416
291.416
291.416
291.416
291.416
291.416
291.416
291.416
291.416
291.416
291.416
291.416
291.416
291.416
291.416
291.416
291.416
291.416
291.416
291.416
291.416
291.741
291.739
291.733
291.724
291.712
291.696
291.676
291.654
291.629
291.601
291.57
291.538
291.503
291.466
291.427
291.386
291.344
291.301
291.256
291.21
291.163
291.114
291.065
291.016
290.965
290.914
290.862
290.809
290.803
290.803
290.803
290.803
290.803
290.803
290.803
290.803
290.803
290.803
290.803
290.803
290.803
290.803
290.803
290.803
290.803
290.803
290.803
290.803
290.803
290.803
290.803
290.803
290.803
290.803
290.803
290.803
290.803
290.803
290.803
290.803
290.803
290.803
290.803
290.803
290.803
290.803
290.803
290.803
290.803
290.803
290.803
290.803
290.803
290.803
290.803
290.803
290.803
290.803
290.803
290.803
291.19
291.188
291.182
291.173
291.159
291.142
291.122
291.098
291.072
291.043
291.011
290.976
290.94
290.902
290.861
290.819
290.776
290.731
290.685
290.638
290.589
290.54
290.49
290.439
290.387
290.335
290.282
290.228
290.19
290.19
290.19
290.19
290.19
290.19
290.19
290.19
290.19
290.19
290.19
290.19
290.19
290.19
290.19
290.19
290.19
290.19
290.19
290.19
290.19
290.19
290.19
290.19
290.19
290.19
290.19
290.19
290.19
290.19
290.19
290.19
290.19
290.19
290.19
290.19
290.19
290.19
290.19
290.19
290.19
290.19
290.19
290.19
290.19
290.19
290.19
290.19
290.19
290.19
290.19
290.19
290.639
290.637
290.631
290.621
290.607
290.589
290.567
290.542
290.514
290.484
290.45
290.414
290.376
290.336
290.294
290.251
290.206
290.16
290.112
290.064
290.014
289.964
289.913
289.861
289.808
289.755
289.701
289.646
289.592
289.577
289.577
289.577
289.577
289.577
289.577
289.577
289.577
289.577
289.577
289.577
289.577
289.577
289.577
289.577
289.577
289.577
289.577
289.577
289.577
289.577
289.577
289.577
289.577
289.577
289.577
289.577
289.577
289.577
289.577
289.577
289.577
289.577
289.577
289.577
289.577
289.577
289.577
289.577
289.577
289.577
289.577
289.577
289.577
289.577
289.577
289.577
289.577
289.577
289.577
289.577
290.089
290.087
290.08
290.069
290.054
290.035
290.012
289.985
289.956
289.924
289.888
289.851
289.811
289.77
289.726
289.681
289.635
289.587
289.539
289.489
289.438
289.386
289.334
289.281
289.227
289.173
289.118
289.063
289.007
288.964
288.964
288.964
288.964
288.964
288.964
288.964
288.964
288.964
288.964
288.964
288.964
288.964
288.964
288.964
288.964
288.964
288.964
288.964
288.964
288.964
288.964
288.964
288.964
288.964
288.964
288.964
288.964
288.964
288.964
288.964
288.964
288.964
288.964
288.964
288.964
288.964
288.964
288.964
288.964
288.964
288.964
288.964
288.964
288.964
288.964
288.964
288.964
288.964
288.964
288.964
289.538
289.536
289.529
289.517
289.501
289.48
289.456
289.428
289.397
289.362
289.326
289.286
289.245
289.202
289.157
289.11
289.062
289.013
288.963
288.912
288.86
288.807
288.754
288.699
288.645
288.589
288.534
288.478
288.421
288.364
288.351
288.351
288.351
288.351
288.351
288.351
288.351
288.351
288.351
288.351
288.351
288.351
288.351
288.351
288.351
288.351
288.351
288.351
288.351
288.351
288.351
288.351
288.351
288.351
288.351
288.351
288.351
288.351
288.351
288.351
288.351
288.351
288.351
288.351
288.351
288.351
288.351
288.351
288.351
288.351
288.351
288.351
288.351
288.351
288.351
288.351
288.351
288.351
288.351
288.351
288.988
288.985
288.977
288.964
288.947
288.925
288.899
288.869
288.836
288.8
288.761
288.72
288.677
288.632
288.585
288.537
288.488
288.437
288.385
288.333
288.28
288.226
288.171
288.116
288.06
288.004
287.948
287.891
287.834
287.776
287.738
287.738
287.738
287.738
287.738
287.738
287.738
287.738
287.738
287.738
287.738
287.738
287.738
287.738
287.738
287.738
287.738
287.738
287.738
287.738
287.738
287.738
287.738
287.738
287.738
287.738
287.738
287.738
287.738
287.738
287.738
287.738
287.738
287.738
287.738
287.738
287.738
287.738
287.738
287.738
287.738
287.738
287.738
287.738
287.738
287.738
287.738
287.738
287.738
287.738
288.437
288.434
288.426
288.412
288.393
288.369
288.341
288.309
288.274
288.236
288.195
288.152
288.107
288.06
288.012
287.962
287.911
287.859
287.806
287.752
287.698
287.643
287.587
287.531
287.474
287.417
287.36
287.302
287.244
287.186
287.127
287.124
287.124
287.124
287.124
287.124
287.124
287.124
287.124
287.124
287.124
287.124
287.124
287.124
287.124
287.124
287.124
287.124
287.124
287.124
287.124
287.124
287.124
287.124
287.124
287.124
287.124
287.124
287.124
287.124
287.124
287.124
287.124
287.124
287.124
287.124
287.124
287.124
287.124
287.124
287.124
287.124
287.124
287.124
287.124
287.124
287.124
287.124
287.124
287.124
287.886
287.883
287.874
287.859
287.838
287.812
287.782
287.748
287.711
287.67
287.627
287.582
287.535
287.486
287.436
287.385
287.332
287.279
287.224
287.169
287.114
287.058
287.001
286.944
286.886
286.828
286.77
286.712
286.653
286.594
286.535
286.511
286.511
286.511
286.511
286.511
286.511
286.511
286.511
286.511
286.511
286.511
286.511
286.511
286.511
286.511
286.511
286.511
286.511
286.511
286.511
286.511
286.511
286.511
286.511
286.511
286.511
286.511
286.511
286.511
286.511
286.511
286.511
286.511
286.511
286.511
286.511
286.511
286.511
286.511
286.511
286.511
286.511
286.511
286.511
286.511
286.511
286.511
286.511
286.511
287.336
287.332
287.322
287.305
287.283
287.255
287.222
287.186
287.146
287.103
287.057
287.01
286.961
286.91
286.858
286.805
286.751
286.696
286.64
286.584
286.527
286.47
286.413
286.354
286.296
286.237
286.179
286.119
286.06
286
285.941
285.898
285.898
285.898
285.898
285.898
285.898
285.898
285.898
285.898
285.898
285.898
285.898
285.898
285.898
285.898
285.898
285.898
285.898
285.898
285.898
285.898
285.898
285.898
285.898
285.898
285.898
285.898
285.898
285.898
285.898
285.898
285.898
285.898
285.898
285.898
285.898
285.898
285.898
285.898
285.898
285.898
285.898
285.898
285.898
285.898
285.898
285.898
285.898
285.898
286.785
286.781
286.77
286.751
286.726
286.695
286.66
286.621
286.578
286.532
286.485
286.435
286.384
286.331
286.277
286.223
286.167
286.111
286.054
285.997
285.939
285.88
285.822
285.763
285.704
285.644
285.585
285.525
285.465
285.405
285.344
285.285
285.285
285.285
285.285
285.285
285.285
285.285
285.285
285.285
285.285
285.285
285.285
285.285
285.285
285.285
285.285
285.285
285.285
285.285
285.285
285.285
285.285
285.285
285.285
285.285
285.285
285.285
285.285
285.285
285.285
285.285
285.285
285.285
285.285
285.285
285.285
285.285
285.285
285.285
285.285
285.285
285.285
285.285
285.285
285.285
285.285
285.285
285.285
285.285
286.234
286.23
286.217
286.196
286.168
286.134
286.096
286.053
286.007
285.959
285.909
285.857
285.804
285.749
285.694
285.637
285.58
285.523
285.465
285.406
285.348
285.288
285.229
285.169
285.109
285.049
284.989
284.929
284.868
284.807
284.747
284.686
284.672
284.672
284.672
284.672
284.672
284.672
284.672
284.672
284.672
284.672
284.672
284.672
284.672
284.672
284.672
284.672
284.672
284.672
284.672
284.672
284.672
284.672
284.672
284.672
284.672
284.672
284.672
284.672
284.672
284.672
284.672
284.672
284.672
284.672
284.672
284.672
284.672
284.672
284.672
284.672
284.672
284.672
284.672
284.672
284.672
284.672
284.672
284.672
285.684
285.679
285.663
285.639
285.608
285.571
285.528
285.483
285.434
285.383
285.33
285.276
285.22
285.164
285.107
285.049
284.991
284.932
284.873
284.813
284.754
284.694
284.634
284.573
284.513
284.452
284.391
284.33
284.269
284.208
284.147
284.085
284.059
284.059
284.059
284.059
284.059
284.059
284.059
284.059
284.059
284.059
284.059
284.059
284.059
284.059
284.059
284.059
284.059
284.059
284.059
284.059
284.059
284.059
284.059
284.059
284.059
284.059
284.059
284.059
284.059
284.059
284.059
284.059
284.059
284.059
284.059
284.059
284.059
284.059
284.059
284.059
284.059
284.059
284.059
284.059
284.059
284.059
284.059
284.059
285.133
285.127
285.109
285.081
285.045
285.004
284.957
284.908
284.856
284.802
284.747
284.69
284.633
284.575
284.516
284.457
284.398
284.338
284.278
284.218
284.157
284.096
284.036
283.975
283.913
283.852
283.791
283.729
283.668
283.606
283.545
283.483
283.446
283.446
283.446
283.446
283.446
283.446
283.446
283.446
283.446
283.446
283.446
283.446
283.446
283.446
283.446
283.446
283.446
283.446
283.446
283.446
283.446
283.446
283.446
283.446
283.446
283.446
283.446
283.446
283.446
283.446
283.446
283.446
283.446
283.446
283.446
283.446
283.446
283.446
283.446
283.446
283.446
283.446
283.446
283.446
283.446
283.446
283.446
283.446
284.582
284.575
284.553
284.52
284.479
284.432
284.382
284.329
284.273
284.217
284.159
284.101
284.042
283.982
283.922
283.862
283.802
283.741
283.68
283.619
283.558
283.496
283.435
283.373
283.312
283.25
283.188
283.127
283.065
283.003
282.941
282.879
282.832
282.832
282.832
282.832
282.832
282.832
282.832
282.832
282.832
282.832
282.832
282.832
282.832
282.832
282.832
282.832
282.832
282.832
282.832
282.832
282.832
282.832
282.832
282.832
282.832
282.832
282.832
282.832
282.832
282.832
282.832
282.832
282.832
282.832
282.832
282.832
282.832
282.832
282.832
282.832
282.832
282.832
282.832
282.832
282.832
282.832
282.832
282.832
284.032
284.022
283.994
283.954
283.907
283.855
283.8
283.743
283.685
283.626
283.567
283.507
283.446
283.386
283.325
283.263
283.202
283.14
283.079
283.017
282.955
282.894
282.832
282.77
282.708
282.646
282.584
282.521
282.459
282.397
282.335
282.273
282.219
282.219
282.219
282.219
282.219
282.219
282.219
282.219
282.219
282.219
282.219
282.219
282.219
282.219
282.219
282.219
282.219
282.219
282.219
282.219
282.219
282.219
282.219
282.219
282.219
282.219
282.219
282.219
282.219
282.219
282.219
282.219
282.219
282.219
282.219
282.219
282.219
282.219
282.219
282.219
282.219
282.219
282.219
282.219
282.219
282.219
282.219
282.219
283.481
283.466
283.429
283.381
283.327
283.27
283.211
283.151
283.091
283.03
282.969
282.907
282.846
282.784
282.722
282.66
282.598
282.536
282.474
282.412
282.35
282.288
282.226
282.163
282.101
282.039
281.976
281.914
281.852
281.789
281.727
281.665
281.606
281.606
281.606
281.606
281.606
281.606
281.606
281.606
281.606
281.606
281.606
281.606
281.606
281.606
281.606
281.606
281.606
281.606
281.606
281.606
281.606
281.606
281.606
281.606
281.606
281.606
281.606
281.606
281.606
281.606
281.606
281.606
281.606
281.606
281.606
281.606
281.606
281.606
281.606
281.606
281.606
281.606
281.606
281.606
281.606
281.606
281.606
281.606
282.931
282.905
282.853
282.795
282.735
282.674
282.613
282.551
282.489
282.427
282.365
282.303
282.241
282.178
282.116
282.054
281.991
281.929
281.866
281.804
281.742
281.679
281.617
281.554
281.492
281.429
281.367
281.304
281.242
281.18
281.117
281.055
280.993
280.993
280.993
280.993
280.993
280.993
280.993
280.993
280.993
280.993
280.993
280.993
280.993
280.993
280.993
280.993
280.993
280.993
280.993
280.993
280.993
280.993
280.993
280.993
280.993
280.993
280.993
280.993
280.993
280.993
280.993
280.993
280.993
280.993
280.993
280.993
280.993
280.993
280.993
280.993
280.993
280.993
280.993
280.993
280.993
280.993
280.993
280.993
282.38
282.317
282.255
282.192
282.13
282.067
282.005
281.942
281.88
281.817
281.755
281.692
281.63
281.567
281.505
281.442
281.38
281.317
281.255
281.192
281.13
281.067
281.005
280.942
280.88
280.817
280.755
280.692
280.63
280.567
280.505
280.442
280.38
280.38
280.38
280.38
280.38
280.38
280.38
280.38
280.38
280.38
280.38
280.38
280.38
280.38
280.38
280.38
280.38
280.38
280.38
280.38
280.38
280.38
280.38
280.38
280.38
280.38
280.38
280.38
280.38
280.38
280.38
280.38
280.38
280.38
280.38
280.38
280.38
280.38
280.38
280.38
280.38
280.38
280.38
280.38
280.38
280.38
280.38
280.38
281.704
281.678
281.627
281.569
281.509
281.448
281.387
281.325
281.263
281.201
281.139
281.077
281.014
280.952
280.89
280.827
280.765
280.703
280.64
280.578
280.515
280.453
280.39
280.328
280.266
280.203
280.141
280.078
280.016
279.953
279.891
279.828
279.767
279.767
279.767
279.767
279.767
279.767
279.767
279.767
279.767
279.767
279.767
279.767
279.767
279.767
279.767
279.767
279.767
279.767
279.767
279.767
279.767
279.767
279.767
279.767
279.767
279.767
279.767
279.767
279.767
279.767
279.767
279.767
279.767
279.767
279.767
279.767
279.767
279.767
279.767
279.767
279.767
279.767
279.767
279.767
279.767
279.767
279.767
279.767
281.029
281.014
280.977
280.928
280.874
280.817
280.758
280.699
280.638
280.578
280.516
280.455
280.393
280.332
280.27
280.208
280.146
280.084
280.022
279.96
279.898
279.835
279.773
279.711
279.649
279.586
279.524
279.462
279.399
279.337
279.275
279.212
279.154
279.154
279.154
279.154
279.154
279.154
279.154
279.154
279.154
279.154
279.154
279.154
279.154
279.154
279.154
279.154
279.154
279.154
279.154
279.154
279.154
279.154
279.154
279.154
279.154
279.154
279.154
279.154
279.154
279.154
279.154
279.154
279.154
279.154
279.154
279.154
279.154
279.154
279.154
279.154
279.154
279.154
279.154
279.154
279.154
279.154
279.154
279.154
280.353
280.343
280.315
280.275
280.228
280.176
280.121
280.065
280.007
279.948
279.888
279.828
279.768
279.707
279.646
279.585
279.523
279.462
279.4
279.338
279.277
279.215
279.153
279.091
279.029
278.967
278.905
278.843
278.781
278.718
278.656
278.594
278.541
278.541
278.541
278.541
278.541
278.541
278.541
278.541
278.541
278.541
278.541
278.541
278.541
278.541
278.541
278.541
278.541
278.541
278.541
278.541
278.541
278.541
278.541
278.541
278.541
278.541
278.541
278.541
278.541
278.541
278.541
278.541
278.541
278.541
278.541
278.541
278.541
278.541
278.541
278.541
278.541
278.541
278.541
278.541
278.541
278.541
278.541
278.541
279.678
279.67
279.648
279.615
279.574
279.527
279.477
279.424
279.368
279.312
279.254
279.196
279.137
279.077
279.017
278.957
278.897
278.836
278.775
278.714
278.653
278.591
278.53
278.468
278.407
278.345
278.283
278.222
278.16
278.098
278.036
277.974
277.928
277.928
277.928
277.928
277.928
277.928
277.928
277.928
277.928
277.928
277.928
277.928
277.928
277.928
277.928
277.928
277.928
277.928
277.928
277.928
277.928
277.928
277.928
277.928
277.928
277.928
277.928
277.928
277.928
277.928
277.928
277.928
277.928
277.928
277.928
277.928
277.928
277.928
277.928
277.928
277.928
277.928
277.928
277.928
277.928
277.928
277.928
277.928
279.002
278.996
278.978
278.95
278.914
278.872
278.826
278.777
278.725
278.671
278.616
278.559
278.502
278.444
278.385
278.326
278.267
278.207
278.147
278.086
278.026
277.965
277.904
277.843
277.782
277.721
277.66
277.598
277.537
277.475
277.414
277.352
277.314
277.314
277.314
277.314
277.314
277.314
277.314
277.314
277.314
277.314
277.314
277.314
277.314
277.314
277.314
277.314
277.314
277.314
277.314
277.314
277.314
277.314
277.314
277.314
277.314
277.314
277.314
277.314
277.314
277.314
277.314
277.314
277.314
277.314
277.314
277.314
277.314
277.314
277.314
277.314
277.314
277.314
277.314
277.314
277.314
277.314
277.314
277.314
278.326
278.321
278.306
278.282
278.251
278.213
278.171
278.125
278.076
278.025
277.972
277.918
277.863
277.806
277.749
277.692
277.633
277.575
277.515
277.456
277.396
277.336
277.276
277.216
277.155
277.094
277.034
276.973
276.912
276.85
276.789
276.728
276.701
276.701
276.701
276.701
276.701
276.701
276.701
276.701
276.701
276.701
276.701
276.701
276.701
276.701
276.701
276.701
276.701
276.701
276.701
276.701
276.701
276.701
276.701
276.701
276.701
276.701
276.701
276.701
276.701
276.701
276.701
276.701
276.701
276.701
276.701
276.701
276.701
276.701
276.701
276.701
276.701
276.701
276.701
276.701
276.701
276.701
276.701
276.701
277.651
277.646
277.633
277.612
277.584
277.55
277.512
277.469
277.424
277.376
277.325
277.273
277.22
277.165
277.11
277.054
276.997
276.939
276.881
276.823
276.764
276.705
276.645
276.586
276.526
276.466
276.405
276.345
276.284
276.224
276.163
276.102
276.088
276.088
276.088
276.088
276.088
276.088
276.088
276.088
276.088
276.088
276.088
276.088
276.088
276.088
276.088
276.088
276.088
276.088
276.088
276.088
276.088
276.088
276.088
276.088
276.088
276.088
276.088
276.088
276.088
276.088
276.088
276.088
276.088
276.088
276.088
276.088
276.088
276.088
276.088
276.088
276.088
276.088
276.088
276.088
276.088
276.088
276.088
276.088
276.975
276.971
276.96
276.941
276.916
276.885
276.85
276.811
276.768
276.722
276.675
276.625
276.574
276.521
276.467
276.413
276.357
276.301
276.244
276.187
276.129
276.07
276.012
275.953
275.894
275.834
275.775
275.715
275.655
275.595
275.534
275.475
275.475
275.475
275.475
275.475
275.475
275.475
275.475
275.475
275.475
275.475
275.475
275.475
275.475
275.475
275.475
275.475
275.475
275.475
275.475
275.475
275.475
275.475
275.475
275.475
275.475
275.475
275.475
275.475
275.475
275.475
275.475
275.475
275.475
275.475
275.475
275.475
275.475
275.475
275.475
275.475
275.475
275.475
275.475
275.475
275.475
275.475
275.475
275.475
276.299
276.296
276.286
276.269
276.246
276.218
276.186
276.149
276.109
276.066
276.021
275.974
275.924
275.874
275.822
275.769
275.715
275.66
275.604
275.548
275.491
275.434
275.376
275.318
275.26
275.201
275.142
275.083
275.024
274.964
274.904
274.862
274.862
274.862
274.862
274.862
274.862
274.862
274.862
274.862
274.862
274.862
274.862
274.862
274.862
274.862
274.862
274.862
274.862
274.862
274.862
274.862
274.862
274.862
274.862
274.862
274.862
274.862
274.862
274.862
274.862
274.862
274.862
274.862
274.862
274.862
274.862
274.862
274.862
274.862
274.862
274.862
274.862
274.862
274.862
274.862
274.862
274.862
274.862
274.862
275.624
275.621
275.611
275.596
275.576
275.55
275.52
275.486
275.448
275.408
275.365
275.32
275.272
275.224
275.173
275.122
275.07
275.016
274.962
274.907
274.851
274.795
274.738
274.681
274.624
274.566
274.508
274.449
274.39
274.332
274.272
274.249
274.249
274.249
274.249
274.249
274.249
274.249
274.249
274.249
274.249
274.249
274.249
274.249
274.249
274.249
274.249
274.249
274.249
274.249
274.249
274.249
274.249
274.249
274.249
274.249
274.249
274.249
274.249
274.249
274.249
274.249
274.249
274.249
274.249
274.249
274.249
274.249
274.249
274.249
274.249
274.249
274.249
274.249
274.249
274.249
274.249
274.249
274.249
274.249
274.948
274.945
274.937
274.923
274.904
274.88
274.853
274.821
274.786
274.747
274.706
274.663
274.618
274.571
274.523
274.473
274.422
274.37
274.317
274.263
274.209
274.154
274.098
274.042
273.986
273.929
273.871
273.813
273.755
273.697
273.639
273.636
273.636
273.636
273.636
273.636
273.636
273.636
273.636
273.636
273.636
273.636
273.636
273.636
273.636
273.636
273.636
273.636
273.636
273.636
273.636
273.636
273.636
273.636
273.636
273.636
273.636
273.636
273.636
273.636
273.636
273.636
273.636
273.636
273.636
273.636
273.636
273.636
273.636
273.636
273.636
273.636
273.636
273.636
273.636
273.636
273.636
273.636
273.636
273.636
274.272
274.27
274.262
274.249
274.232
274.21
274.184
274.154
274.121
274.085
274.046
274.005
273.962
273.917
273.87
273.822
273.772
273.722
273.67
273.618
273.565
273.511
273.456
273.401
273.345
273.289
273.233
273.176
273.119
273.061
273.022
273.022
273.022
273.022
273.022
273.022
273.022
273.022
273.022
273.022
273.022
273.022
273.022
273.022
273.022
273.022
273.022
273.022
273.022
273.022
273.022
273.022
273.022
273.022
273.022
273.022
273.022
273.022
273.022
273.022
273.022
273.022
273.022
273.022
273.022
273.022
273.022
273.022
273.022
273.022
273.022
273.022
273.022
273.022
273.022
273.022
273.022
273.022
273.022
273.022
273.597
273.594
273.587
273.576
273.559
273.539
273.515
273.487
273.455
273.421
273.384
273.345
273.304
273.26
273.215
273.169
273.121
273.072
273.022
272.971
272.919
272.866
272.812
272.758
272.703
272.648
272.593
272.536
272.48
272.423
272.409
272.409
272.409
272.409
272.409
272.409
272.409
272.409
272.409
272.409
272.409
272.409
272.409
272.409
272.409
272.409
272.409
272.409
272.409
272.409
272.409
272.409
272.409
272.409
272.409
272.409
272.409
272.409
272.409
272.409
272.409
272.409
272.409
272.409
272.409
272.409
272.409
272.409
272.409
272.409
272.409
272.409
272.409
272.409
272.409
272.409
272.409
272.409
272.409
272.409
272.921
272.919
272.912
272.901
272.886
272.867
272.844
272.818
272.788
272.756
272.721
272.683
272.644
272.602
272.559
272.514
272.467
272.42
272.371
272.321
272.27
272.219
272.166
272.113
272.06
272.005
271.951
271.895
271.84
271.796
271.796