/*--------------------------------*- C++ -*----------------------------------*\
| =========                 |                                                 |
| \\      /  F ield         | OpenFOAM: The Open Source CFD Toolbox           |
|  \\    /   O peration     | Version:  v2012                                 |
|   \\  /    A nd           | Website:  www.openfoam.com                      |
|    \\/     M anipulation  |                                                 |
\*---------------------------------------------------------------------------*/
FoamFile
{
    version     2.0;
    format      ascii;
    class       volScalarField;
    location    "0";
    object      ph_rgh;
}
// * * * * * * * * * * * * * * * * * * * * * * * * * * * * * * * * * * * * * //

dimensions      [1 -1 -2 0 0 0 0];


internalField   nonuniform List<scalar> 
12800
(
-84546.1
-84546.1
-84546.1
-84546
-84546
-84545.9
-84545.8
-84545.7
-84545.6
-84545.5
-84545.4
-84545.3
-84545.2
-84545
-84544.9
-84544.8
-84544.6
-84544.5
-84544.3
-84544.2
-84544.1
-84543.9
-84543.8
-84543.6
-84543.5
-84543.4
-84543.2
-84543.1
-84543
-84542.9
-84542.7
-84542.6
-84542.5
-84542.4
-84542.3
-84542.2
-84542.1
-84542
-84541.9
-84541.9
-84541.8
-84541.7
-84541.6
-84541.6
-84541.5
-84541.4
-84541.4
-84541.3
-84541.2
-84541.2
-84541.1
-84541.1
-84541
-84541
-84541
-84540.9
-84540.9
-84540.8
-84540.8
-84540.8
-84540.7
-84540.7
-84540.7
-84540.7
-84540.6
-84540.6
-84540.6
-84540.6
-84540.6
-84540.6
-84540.5
-84540.5
-84540.5
-84540.5
-84540.5
-84540.5
-84540.5
-84540.5
-84540.5
-84540.5
-84546.4
-84546.4
-84546.4
-84546.3
-84546.3
-84546.2
-84546.1
-84546
-84545.9
-84545.8
-84545.7
-84545.6
-84545.5
-84545.3
-84545.2
-84545.1
-84544.9
-84544.8
-84544.6
-84544.5
-84544.3
-84544.2
-84544
-84543.9
-84543.8
-84543.6
-84543.5
-84543.4
-84543.3
-84543.1
-84543
-84542.9
-84542.8
-84542.7
-84542.6
-84542.5
-84542.4
-84542.3
-84542.2
-84542.1
-84542.1
-84542
-84541.9
-84541.8
-84541.8
-84541.7
-84541.6
-84541.6
-84541.5
-84541.5
-84541.4
-84541.4
-84541.3
-84541.3
-84541.2
-84541.2
-84541.2
-84541.1
-84541.1
-84541.1
-84541
-84541
-84541
-84540.9
-84540.9
-84540.9
-84540.9
-84540.9
-84540.8
-84540.8
-84540.8
-84540.8
-84540.8
-84540.8
-84540.8
-84540.8
-84540.8
-84540.8
-84540.8
-84540.8
-84547.3
-84547.3
-84547.3
-84547.2
-84547.2
-84547.1
-84547
-84546.9
-84546.8
-84546.7
-84546.6
-84546.4
-84546.3
-84546.2
-84546
-84545.9
-84545.7
-84545.6
-84545.5
-84545.3
-84545.2
-84545
-84544.9
-84544.7
-84544.6
-84544.5
-84544.3
-84544.2
-84544.1
-84544
-84543.8
-84543.7
-84543.6
-84543.5
-84543.4
-84543.3
-84543.2
-84543.1
-84543
-84543
-84542.9
-84542.8
-84542.7
-84542.7
-84542.6
-84542.5
-84542.5
-84542.4
-84542.3
-84542.3
-84542.2
-84542.2
-84542.1
-84542.1
-84542.1
-84542
-84542
-84541.9
-84541.9
-84541.9
-84541.9
-84541.8
-84541.8
-84541.8
-84541.7
-84541.7
-84541.7
-84541.7
-84541.7
-84541.7
-84541.6
-84541.6
-84541.6
-84541.6
-84541.6
-84541.6
-84541.6
-84541.6
-84541.6
-84541.6
-84548.8
-84548.8
-84548.7
-84548.7
-84548.6
-84548.6
-84548.5
-84548.4
-84548.3
-84548.2
-84548
-84547.9
-84547.7
-84547.6
-84547.4
-84547.3
-84547.1
-84547
-84546.8
-84546.7
-84546.5
-84546.4
-84546.2
-84546.1
-84546
-84545.8
-84545.7
-84545.6
-84545.4
-84545.3
-84545.2
-84545.1
-84545
-84544.9
-84544.8
-84544.7
-84544.6
-84544.5
-84544.4
-84544.3
-84544.2
-84544.2
-84544.1
-84544
-84544
-84543.9
-84543.8
-84543.8
-84543.7
-84543.7
-84543.6
-84543.6
-84543.5
-84543.5
-84543.4
-84543.4
-84543.4
-84543.3
-84543.3
-84543.3
-84543.2
-84543.2
-84543.2
-84543.1
-84543.1
-84543.1
-84543.1
-84543.1
-84543
-84543
-84543
-84543
-84543
-84543
-84543
-84543
-84543
-84543
-84543
-84543
-84550.8
-84550.8
-84550.8
-84550.7
-84550.7
-84550.6
-84550.5
-84550.4
-84550.3
-84550.2
-84550.1
-84549.9
-84549.8
-84549.6
-84549.4
-84549.2
-84549.1
-84548.9
-84548.8
-84548.6
-84548.5
-84548.3
-84548.2
-84548
-84547.9
-84547.7
-84547.6
-84547.5
-84547.4
-84547.2
-84547.1
-84547
-84546.9
-84546.8
-84546.7
-84546.6
-84546.5
-84546.4
-84546.3
-84546.2
-84546.2
-84546.1
-84546
-84545.9
-84545.9
-84545.8
-84545.7
-84545.7
-84545.6
-84545.6
-84545.5
-84545.5
-84545.4
-84545.4
-84545.3
-84545.3
-84545.3
-84545.2
-84545.2
-84545.2
-84545.1
-84545.1
-84545.1
-84545.1
-84545
-84545
-84545
-84545
-84545
-84545
-84544.9
-84544.9
-84544.9
-84544.9
-84544.9
-84544.9
-84544.9
-84544.9
-84544.9
-84544.9
-84553.4
-84553.4
-84553.4
-84553.4
-84553.3
-84553.2
-84553.1
-84553
-84552.9
-84552.8
-84552.7
-84552.5
-84552.3
-84552.2
-84552
-84551.8
-84551.6
-84551.4
-84551.2
-84551.1
-84550.9
-84550.8
-84550.6
-84550.5
-84550.3
-84550.2
-84550.1
-84549.9
-84549.8
-84549.7
-84549.6
-84549.4
-84549.3
-84549.2
-84549.1
-84549
-84548.9
-84548.9
-84548.8
-84548.7
-84548.6
-84548.5
-84548.5
-84548.4
-84548.3
-84548.3
-84548.2
-84548.1
-84548.1
-84548
-84548
-84547.9
-84547.9
-84547.8
-84547.8
-84547.8
-84547.7
-84547.7
-84547.7
-84547.6
-84547.6
-84547.6
-84547.5
-84547.5
-84547.5
-84547.5
-84547.5
-84547.4
-84547.4
-84547.4
-84547.4
-84547.4
-84547.4
-84547.4
-84547.4
-84547.3
-84547.3
-84547.3
-84547.3
-84547.3
-84556.6
-84556.6
-84556.6
-84556.5
-84556.5
-84556.4
-84556.3
-84556.2
-84556.1
-84556
-84555.8
-84555.7
-84555.5
-84555.3
-84555.1
-84554.9
-84554.7
-84554.5
-84554.3
-84554.1
-84553.9
-84553.8
-84553.6
-84553.5
-84553.3
-84553.2
-84553
-84552.9
-84552.8
-84552.7
-84552.5
-84552.4
-84552.3
-84552.2
-84552.1
-84552
-84551.9
-84551.8
-84551.8
-84551.7
-84551.6
-84551.5
-84551.4
-84551.4
-84551.3
-84551.2
-84551.2
-84551.1
-84551.1
-84551
-84551
-84550.9
-84550.9
-84550.8
-84550.8
-84550.8
-84550.7
-84550.7
-84550.7
-84550.6
-84550.6
-84550.6
-84550.5
-84550.5
-84550.5
-84550.5
-84550.5
-84550.4
-84550.4
-84550.4
-84550.4
-84550.4
-84550.4
-84550.4
-84550.4
-84550.3
-84550.3
-84550.3
-84550.3
-84550.3
-84560.4
-84560.4
-84560.4
-84560.3
-84560.2
-84560.2
-84560.1
-84560
-84559.8
-84559.7
-84559.6
-84559.4
-84559.2
-84559
-84558.8
-84558.6
-84558.4
-84558.2
-84557.9
-84557.7
-84557.4
-84557.3
-84557.1
-84557
-84556.8
-84556.7
-84556.6
-84556.4
-84556.3
-84556.2
-84556.1
-84555.9
-84555.8
-84555.7
-84555.6
-84555.5
-84555.4
-84555.4
-84555.3
-84555.2
-84555.1
-84555
-84555
-84554.9
-84554.8
-84554.8
-84554.7
-84554.6
-84554.6
-84554.5
-84554.5
-84554.4
-84554.4
-84554.4
-84554.3
-84554.3
-84554.2
-84554.2
-84554.2
-84554.1
-84554.1
-84554.1
-84554.1
-84554
-84554
-84554
-84554
-84554
-84554
-84553.9
-84553.9
-84553.9
-84553.9
-84553.9
-84553.9
-84553.9
-84553.9
-84553.9
-84553.9
-84553.9
-84564.7
-84564.7
-84564.7
-84564.6
-84564.6
-84564.5
-84564.4
-84564.3
-84564.1
-84564
-84563.8
-84563.7
-84563.5
-84563.3
-84563.1
-84562.9
-84562.6
-84562.4
-84562.1
-84561.9
-84561.6
-84561.4
-84561.2
-84561
-84560.9
-84560.7
-84560.6
-84560.5
-84560.3
-84560.2
-84560.1
-84560
-84559.9
-84559.8
-84559.7
-84559.6
-84559.5
-84559.4
-84559.3
-84559.2
-84559.2
-84559.1
-84559
-84558.9
-84558.9
-84558.8
-84558.8
-84558.7
-84558.6
-84558.6
-84558.5
-84558.5
-84558.5
-84558.4
-84558.4
-84558.3
-84558.3
-84558.3
-84558.2
-84558.2
-84558.2
-84558.2
-84558.1
-84558.1
-84558.1
-84558.1
-84558
-84558
-84558
-84558
-84558
-84558
-84558
-84558
-84557.9
-84557.9
-84557.9
-84557.9
-84557.9
-84557.9
-84569.6
-84569.6
-84569.6
-84569.5
-84569.4
-84569.4
-84569.3
-84569.1
-84569
-84568.8
-84568.7
-84568.5
-84568.3
-84568.1
-84567.9
-84567.6
-84567.4
-84567.2
-84566.9
-84566.6
-84566.4
-84566.1
-84565.8
-84565.6
-84565.4
-84565.3
-84565.2
-84565
-84564.9
-84564.8
-84564.7
-84564.5
-84564.4
-84564.3
-84564.2
-84564.1
-84564.1
-84564
-84563.9
-84563.8
-84563.7
-84563.7
-84563.6
-84563.5
-84563.5
-84563.4
-84563.3
-84563.3
-84563.2
-84563.2
-84563.1
-84563.1
-84563
-84563
-84563
-84562.9
-84562.9
-84562.9
-84562.8
-84562.8
-84562.8
-84562.7
-84562.7
-84562.7
-84562.7
-84562.7
-84562.6
-84562.6
-84562.6
-84562.6
-84562.6
-84562.6
-84562.6
-84562.5
-84562.5
-84562.5
-84562.5
-84562.5
-84562.5
-84562.5
-84575
-84575
-84575
-84574.9
-84574.9
-84574.8
-84574.7
-84574.5
-84574.4
-84574.2
-84574.1
-84573.9
-84573.7
-84573.5
-84573.2
-84573
-84572.7
-84572.5
-84572.2
-84571.9
-84571.6
-84571.3
-84571
-84570.7
-84570.5
-84570.4
-84570.3
-84570.1
-84570
-84569.9
-84569.7
-84569.6
-84569.5
-84569.4
-84569.3
-84569.2
-84569.1
-84569.1
-84569
-84568.9
-84568.8
-84568.7
-84568.7
-84568.6
-84568.5
-84568.5
-84568.4
-84568.4
-84568.3
-84568.3
-84568.2
-84568.2
-84568.1
-84568.1
-84568.1
-84568
-84568
-84568
-84567.9
-84567.9
-84567.9
-84567.9
-84567.8
-84567.8
-84567.8
-84567.8
-84567.7
-84567.7
-84567.7
-84567.7
-84567.7
-84567.7
-84567.7
-84567.7
-84567.7
-84567.6
-84567.6
-84567.6
-84567.6
-84567.6
-84581
-84581
-84581
-84580.9
-84580.9
-84580.8
-84580.6
-84580.5
-84580.4
-84580.2
-84580
-84579.8
-84579.6
-84579.4
-84579.1
-84578.9
-84578.6
-84578.3
-84578
-84577.7
-84577.4
-84577.1
-84576.8
-84576.5
-84576.2
-84576
-84575.9
-84575.7
-84575.6
-84575.5
-84575.3
-84575.2
-84575.1
-84575
-84574.9
-84574.8
-84574.7
-84574.7
-84574.6
-84574.5
-84574.4
-84574.4
-84574.3
-84574.2
-84574.2
-84574.1
-84574.1
-84574
-84573.9
-84573.9
-84573.9
-84573.8
-84573.8
-84573.7
-84573.7
-84573.7
-84573.6
-84573.6
-84573.6
-84573.5
-84573.5
-84573.5
-84573.5
-84573.4
-84573.4
-84573.4
-84573.4
-84573.4
-84573.3
-84573.3
-84573.3
-84573.3
-84573.3
-84573.3
-84573.3
-84573.3
-84573.3
-84573.3
-84573.3
-84573.3
-84587.6
-84587.6
-84587.5
-84587.5
-84587.4
-84587.3
-84587.1
-84587
-84586.8
-84586.7
-84586.5
-84586.3
-84586
-84585.8
-84585.5
-84585.3
-84585
-84584.7
-84584.4
-84584.1
-84583.8
-84583.5
-84583.1
-84582.8
-84582.5
-84582.1
-84582
-84581.8
-84581.7
-84581.6
-84581.5
-84581.3
-84581.2
-84581.1
-84581
-84581
-84580.9
-84580.8
-84580.7
-84580.6
-84580.6
-84580.5
-84580.4
-84580.4
-84580.3
-84580.2
-84580.2
-84580.1
-84580.1
-84580
-84580
-84579.9
-84579.9
-84579.9
-84579.8
-84579.8
-84579.8
-84579.7
-84579.7
-84579.7
-84579.7
-84579.6
-84579.6
-84579.6
-84579.6
-84579.5
-84579.5
-84579.5
-84579.5
-84579.5
-84579.5
-84579.5
-84579.5
-84579.4
-84579.4
-84579.4
-84579.4
-84579.4
-84579.4
-84579.4
-84594.6
-84594.6
-84594.6
-84594.5
-84594.4
-84594.3
-84594.2
-84594
-84593.9
-84593.7
-84593.5
-84593.3
-84593
-84592.8
-84592.5
-84592.2
-84591.9
-84591.6
-84591.3
-84591
-84590.7
-84590.3
-84590
-84589.6
-84589.3
-84588.9
-84588.6
-84588.5
-84588.3
-84588.2
-84588.1
-84588
-84587.9
-84587.8
-84587.7
-84587.6
-84587.5
-84587.4
-84587.3
-84587.3
-84587.2
-84587.1
-84587.1
-84587
-84586.9
-84586.9
-84586.8
-84586.8
-84586.7
-84586.7
-84586.6
-84586.6
-84586.6
-84586.5
-84586.5
-84586.5
-84586.4
-84586.4
-84586.4
-84586.3
-84586.3
-84586.3
-84586.3
-84586.2
-84586.2
-84586.2
-84586.2
-84586.2
-84586.2
-84586.2
-84586.1
-84586.1
-84586.1
-84586.1
-84586.1
-84586.1
-84586.1
-84586.1
-84586.1
-84586.1
-84602.3
-84602.2
-84602.2
-84602.1
-84602
-84601.9
-84601.8
-84601.6
-84601.4
-84601.2
-84601
-84600.8
-84600.5
-84600.3
-84600
-84599.7
-84599.4
-84599.1
-84598.7
-84598.4
-84598.1
-84597.7
-84597.3
-84597
-84596.6
-84596.2
-84595.8
-84595.6
-84595.5
-84595.3
-84595.2
-84595.1
-84595
-84594.9
-84594.8
-84594.7
-84594.6
-84594.6
-84594.5
-84594.4
-84594.3
-84594.3
-84594.2
-84594.1
-84594.1
-84594
-84594
-84593.9
-84593.9
-84593.8
-84593.8
-84593.8
-84593.7
-84593.7
-84593.7
-84593.6
-84593.6
-84593.6
-84593.5
-84593.5
-84593.5
-84593.5
-84593.4
-84593.4
-84593.4
-84593.4
-84593.4
-84593.4
-84593.3
-84593.3
-84593.3
-84593.3
-84593.3
-84593.3
-84593.3
-84593.3
-84593.3
-84593.3
-84593.3
-84593.3
-84610.4
-84610.4
-84610.3
-84610.3
-84610.2
-84610
-84609.9
-84609.7
-84609.5
-84609.3
-84609.1
-84608.8
-84608.6
-84608.3
-84608
-84607.7
-84607.3
-84607
-84606.7
-84606.3
-84606
-84605.6
-84605.2
-84604.8
-84604.4
-84604
-84603.6
-84603.2
-84603.1
-84603
-84602.8
-84602.7
-84602.6
-84602.5
-84602.4
-84602.4
-84602.3
-84602.2
-84602.1
-84602.1
-84602
-84601.9
-84601.9
-84601.8
-84601.8
-84601.7
-84601.7
-84601.6
-84601.6
-84601.5
-84601.5
-84601.4
-84601.4
-84601.4
-84601.3
-84601.3
-84601.3
-84601.2
-84601.2
-84601.2
-84601.2
-84601.1
-84601.1
-84601.1
-84601.1
-84601.1
-84601.1
-84601
-84601
-84601
-84601
-84601
-84601
-84601
-84601
-84601
-84601
-84601
-84601
-84601
-84619.1
-84619.1
-84619
-84618.9
-84618.8
-84618.7
-84618.5
-84618.4
-84618.1
-84617.9
-84617.7
-84617.4
-84617.1
-84616.8
-84616.5
-84616.2
-84615.8
-84615.5
-84615.1
-84614.8
-84614.4
-84614
-84613.6
-84613.2
-84612.8
-84612.4
-84612
-84611.5
-84611.2
-84611.1
-84611
-84610.9
-84610.8
-84610.7
-84610.6
-84610.5
-84610.4
-84610.3
-84610.3
-84610.2
-84610.1
-84610.1
-84610
-84610
-84609.9
-84609.9
-84609.8
-84609.8
-84609.7
-84609.7
-84609.6
-84609.6
-84609.6
-84609.5
-84609.5
-84609.5
-84609.5
-84609.4
-84609.4
-84609.4
-84609.4
-84609.3
-84609.3
-84609.3
-84609.3
-84609.3
-84609.2
-84609.2
-84609.2
-84609.2
-84609.2
-84609.2
-84609.2
-84609.2
-84609.2
-84609.2
-84609.2
-84609.2
-84609.1
-84609.1
-84628.3
-84628.3
-84628.2
-84628.1
-84628
-84627.9
-84627.7
-84627.5
-84627.3
-84627
-84626.8
-84626.5
-84626.2
-84625.9
-84625.5
-84625.2
-84624.8
-84624.5
-84624.1
-84623.7
-84623.3
-84622.9
-84622.5
-84622.1
-84621.7
-84621.2
-84620.8
-84620.4
-84619.9
-84619.7
-84619.6
-84619.5
-84619.4
-84619.3
-84619.2
-84619.1
-84619.1
-84619
-84618.9
-84618.9
-84618.8
-84618.7
-84618.7
-84618.6
-84618.6
-84618.5
-84618.5
-84618.4
-84618.4
-84618.4
-84618.3
-84618.3
-84618.3
-84618.2
-84618.2
-84618.2
-84618.1
-84618.1
-84618.1
-84618.1
-84618
-84618
-84618
-84618
-84618
-84617.9
-84617.9
-84617.9
-84617.9
-84617.9
-84617.9
-84617.9
-84617.9
-84617.9
-84617.9
-84617.9
-84617.8
-84617.8
-84617.8
-84617.8
-84638
-84638
-84637.9
-84637.9
-84637.7
-84637.6
-84637.4
-84637.2
-84636.9
-84636.7
-84636.4
-84636.1
-84635.8
-84635.4
-84635.1
-84634.7
-84634.3
-84633.9
-84633.5
-84633.1
-84632.7
-84632.3
-84631.9
-84631.4
-84631
-84630.6
-84630.1
-84629.7
-84629.2
-84628.8
-84628.7
-84628.6
-84628.5
-84628.4
-84628.4
-84628.3
-84628.2
-84628.1
-84628.1
-84628
-84627.9
-84627.9
-84627.8
-84627.8
-84627.7
-84627.7
-84627.6
-84627.6
-84627.6
-84627.5
-84627.5
-84627.5
-84627.4
-84627.4
-84627.4
-84627.3
-84627.3
-84627.3
-84627.3
-84627.2
-84627.2
-84627.2
-84627.2
-84627.2
-84627.2
-84627.1
-84627.1
-84627.1
-84627.1
-84627.1
-84627.1
-84627.1
-84627.1
-84627.1
-84627
-84627
-84627
-84627
-84627
-84627
-84648.3
-84648.2
-84648.2
-84648.1
-84647.9
-84647.8
-84647.6
-84647.3
-84647.1
-84646.8
-84646.5
-84646.2
-84645.8
-84645.5
-84645.1
-84644.7
-84644.3
-84643.9
-84643.5
-84643.1
-84642.7
-84642.2
-84641.8
-84641.3
-84640.9
-84640.4
-84639.9
-84639.5
-84639
-84638.5
-84638.3
-84638.2
-84638.1
-84638.1
-84638
-84637.9
-84637.8
-84637.8
-84637.7
-84637.6
-84637.6
-84637.5
-84637.5
-84637.4
-84637.4
-84637.3
-84637.3
-84637.3
-84637.2
-84637.2
-84637.2
-84637.1
-84637.1
-84637.1
-84637
-84637
-84637
-84637
-84636.9
-84636.9
-84636.9
-84636.9
-84636.9
-84636.8
-84636.8
-84636.8
-84636.8
-84636.8
-84636.8
-84636.8
-84636.8
-84636.8
-84636.7
-84636.7
-84636.7
-84636.7
-84636.7
-84636.7
-84636.7
-84636.7
-84659
-84659
-84658.9
-84658.8
-84658.7
-84658.5
-84658.3
-84658
-84657.7
-84657.4
-84657.1
-84656.8
-84656.4
-84656
-84655.6
-84655.2
-84654.8
-84654.4
-84653.9
-84653.5
-84653.1
-84652.6
-84652.1
-84651.7
-84651.2
-84650.7
-84650.2
-84649.8
-84649.3
-84648.8
-84648.4
-84648.3
-84648.2
-84648.2
-84648.1
-84648
-84648
-84647.9
-84647.8
-84647.8
-84647.7
-84647.7
-84647.6
-84647.6
-84647.5
-84647.5
-84647.5
-84647.4
-84647.4
-84647.3
-84647.3
-84647.3
-84647.3
-84647.2
-84647.2
-84647.2
-84647.2
-84647.1
-84647.1
-84647.1
-84647.1
-84647.1
-84647
-84647
-84647
-84647
-84647
-84647
-84647
-84646.9
-84646.9
-84646.9
-84646.9
-84646.9
-84646.9
-84646.9
-84646.9
-84646.9
-84646.9
-84646.9
-84670.3
-84670.3
-84670.2
-84670.1
-84669.9
-84669.7
-84669.5
-84669.2
-84668.9
-84668.6
-84668.2
-84667.8
-84667.5
-84667.1
-84666.7
-84666.2
-84665.8
-84665.3
-84664.9
-84664.4
-84664
-84663.5
-84663
-84662.5
-84662
-84661.5
-84661
-84660.5
-84660
-84659.5
-84659
-84658.9
-84658.8
-84658.7
-84658.7
-84658.6
-84658.5
-84658.5
-84658.4
-84658.4
-84658.3
-84658.3
-84658.2
-84658.2
-84658.2
-84658.1
-84658.1
-84658
-84658
-84658
-84657.9
-84657.9
-84657.9
-84657.9
-84657.8
-84657.8
-84657.8
-84657.8
-84657.8
-84657.7
-84657.7
-84657.7
-84657.7
-84657.7
-84657.7
-84657.6
-84657.6
-84657.6
-84657.6
-84657.6
-84657.6
-84657.6
-84657.6
-84657.6
-84657.6
-84657.6
-84657.6
-84657.6
-84657.6
-84657.6
-84682.1
-84682.1
-84682
-84681.8
-84681.7
-84681.4
-84681.2
-84680.9
-84680.5
-84680.2
-84679.8
-84679.4
-84679
-84678.6
-84678.1
-84677.7
-84677.2
-84676.8
-84676.3
-84675.8
-84675.3
-84674.8
-84674.3
-84673.8
-84673.3
-84672.8
-84672.3
-84671.8
-84671.3
-84670.7
-84670.2
-84670
-84669.9
-84669.8
-84669.8
-84669.7
-84669.6
-84669.6
-84669.5
-84669.5
-84669.4
-84669.4
-84669.3
-84669.3
-84669.3
-84669.2
-84669.2
-84669.2
-84669.1
-84669.1
-84669.1
-84669
-84669
-84669
-84669
-84669
-84668.9
-84668.9
-84668.9
-84668.9
-84668.9
-84668.8
-84668.8
-84668.8
-84668.8
-84668.8
-84668.8
-84668.8
-84668.8
-84668.8
-84668.7
-84668.7
-84668.7
-84668.7
-84668.7
-84668.7
-84668.7
-84668.7
-84668.7
-84668.7
-84694.4
-84694.3
-84694.2
-84694.1
-84693.9
-84693.6
-84693.3
-84693
-84692.7
-84692.3
-84691.9
-84691.5
-84691
-84690.6
-84690.1
-84689.6
-84689.2
-84688.7
-84688.2
-84687.7
-84687.2
-84686.7
-84686.2
-84685.6
-84685.1
-84684.6
-84684.1
-84683.5
-84683
-84682.4
-84681.9
-84681.5
-84681.4
-84681.4
-84681.3
-84681.2
-84681.2
-84681.1
-84681.1
-84681.1
-84681
-84681
-84680.9
-84680.9
-84680.9
-84680.8
-84680.8
-84680.8
-84680.7
-84680.7
-84680.7
-84680.7
-84680.6
-84680.6
-84680.6
-84680.6
-84680.6
-84680.5
-84680.5
-84680.5
-84680.5
-84680.5
-84680.5
-84680.4
-84680.4
-84680.4
-84680.4
-84680.4
-84680.4
-84680.4
-84680.4
-84680.4
-84680.4
-84680.4
-84680.4
-84680.4
-84680.4
-84680.4
-84680.3
-84680.3
-84707.2
-84707.1
-84707
-84706.8
-84706.6
-84706.3
-84706
-84705.7
-84705.3
-84704.9
-84704.4
-84704
-84703.5
-84703
-84702.5
-84702.1
-84701.6
-84701
-84700.5
-84700
-84699.5
-84699
-84698.4
-84697.9
-84697.3
-84696.8
-84696.3
-84695.7
-84695.2
-84694.6
-84694.1
-84693.5
-84693.4
-84693.4
-84693.3
-84693.3
-84693.2
-84693.2
-84693.1
-84693.1
-84693.1
-84693
-84693
-84693
-84692.9
-84692.9
-84692.9
-84692.8
-84692.8
-84692.8
-84692.8
-84692.7
-84692.7
-84692.7
-84692.7
-84692.7
-84692.7
-84692.6
-84692.6
-84692.6
-84692.6
-84692.6
-84692.6
-84692.6
-84692.5
-84692.5
-84692.5
-84692.5
-84692.5
-84692.5
-84692.5
-84692.5
-84692.5
-84692.5
-84692.5
-84692.5
-84692.5
-84692.5
-84692.5
-84692.5
-84720.4
-84720.4
-84720.3
-84720.1
-84719.8
-84719.5
-84719.1
-84718.7
-84718.3
-84717.9
-84717.4
-84716.9
-84716.5
-84716
-84715.4
-84714.9
-84714.4
-84713.9
-84713.3
-84712.8
-84712.3
-84711.7
-84711.2
-84710.6
-84710
-84709.5
-84708.9
-84708.4
-84707.8
-84707.2
-84706.7
-84706.1
-84705.9
-84705.9
-84705.8
-84705.8
-84705.7
-84705.7
-84705.7
-84705.6
-84705.6
-84705.6
-84705.5
-84705.5
-84705.5
-84705.4
-84705.4
-84705.4
-84705.4
-84705.4
-84705.3
-84705.3
-84705.3
-84705.3
-84705.3
-84705.2
-84705.2
-84705.2
-84705.2
-84705.2
-84705.2
-84705.2
-84705.1
-84705.1
-84705.1
-84705.1
-84705.1
-84705.1
-84705.1
-84705.1
-84705.1
-84705.1
-84705.1
-84705.1
-84705.1
-84705.1
-84705.1
-84705.1
-84705.1
-84705.1
-84734.2
-84734.2
-84734
-84733.8
-84733.5
-84733.1
-84732.7
-84732.3
-84731.8
-84731.4
-84730.9
-84730.4
-84729.8
-84729.3
-84728.8
-84728.2
-84727.7
-84727.2
-84726.6
-84726
-84725.5
-84724.9
-84724.4
-84723.8
-84723.2
-84722.6
-84722.1
-84721.5
-84720.9
-84720.3
-84719.8
-84719.2
-84718.9
-84718.8
-84718.8
-84718.8
-84718.7
-84718.7
-84718.7
-84718.6
-84718.6
-84718.6
-84718.5
-84718.5
-84718.5
-84718.5
-84718.4
-84718.4
-84718.4
-84718.4
-84718.4
-84718.3
-84718.3
-84718.3
-84718.3
-84718.3
-84718.3
-84718.3
-84718.2
-84718.2
-84718.2
-84718.2
-84718.2
-84718.2
-84718.2
-84718.2
-84718.2
-84718.2
-84718.2
-84718.1
-84718.1
-84718.1
-84718.1
-84718.1
-84718.1
-84718.1
-84718.1
-84718.1
-84718.1
-84718.1
-84748.5
-84748.4
-84748.2
-84748
-84747.6
-84747.2
-84746.8
-84746.3
-84745.8
-84745.3
-84744.8
-84744.2
-84743.7
-84743.1
-84742.6
-84742
-84741.5
-84740.9
-84740.3
-84739.7
-84739.2
-84738.6
-84738
-84737.4
-84736.8
-84736.2
-84735.7
-84735.1
-84734.5
-84733.9
-84733.3
-84732.7
-84732.3
-84732.3
-84732.2
-84732.2
-84732.2
-84732.1
-84732.1
-84732.1
-84732.1
-84732
-84732
-84732
-84732
-84732
-84731.9
-84731.9
-84731.9
-84731.9
-84731.9
-84731.9
-84731.8
-84731.8
-84731.8
-84731.8
-84731.8
-84731.8
-84731.8
-84731.8
-84731.7
-84731.7
-84731.7
-84731.7
-84731.7
-84731.7
-84731.7
-84731.7
-84731.7
-84731.7
-84731.7
-84731.7
-84731.7
-84731.7
-84731.7
-84731.7
-84731.6
-84731.6
-84731.6
-84731.6
-84763.2
-84763.1
-84762.9
-84762.6
-84762.2
-84761.7
-84761.2
-84760.7
-84760.2
-84759.7
-84759.1
-84758.5
-84758
-84757.4
-84756.8
-84756.2
-84755.6
-84755
-84754.5
-84753.9
-84753.3
-84752.7
-84752.1
-84751.5
-84750.9
-84750.3
-84749.7
-84749.1
-84748.5
-84747.9
-84747.3
-84746.6
-84746.2
-84746.1
-84746.1
-84746.1
-84746.1
-84746.1
-84746
-84746
-84746
-84746
-84746
-84745.9
-84745.9
-84745.9
-84745.9
-84745.9
-84745.9
-84745.8
-84745.8
-84745.8
-84745.8
-84745.8
-84745.8
-84745.8
-84745.8
-84745.7
-84745.7
-84745.7
-84745.7
-84745.7
-84745.7
-84745.7
-84745.7
-84745.7
-84745.7
-84745.7
-84745.7
-84745.7
-84745.7
-84745.6
-84745.6
-84745.6
-84745.6
-84745.6
-84745.6
-84745.6
-84745.6
-84745.6
-84778.4
-84778.3
-84778.1
-84777.7
-84777.2
-84776.7
-84776.1
-84775.6
-84775
-84774.4
-84773.8
-84773.2
-84772.7
-84772.1
-84771.5
-84770.9
-84770.3
-84769.6
-84769
-84768.4
-84767.8
-84767.2
-84766.6
-84766
-84765.4
-84764.8
-84764.2
-84763.5
-84762.9
-84762.3
-84761.7
-84761.1
-84760.5
-84760.5
-84760.5
-84760.5
-84760.4
-84760.4
-84760.4
-84760.4
-84760.4
-84760.4
-84760.4
-84760.3
-84760.3
-84760.3
-84760.3
-84760.3
-84760.3
-84760.3
-84760.3
-84760.2
-84760.2
-84760.2
-84760.2
-84760.2
-84760.2
-84760.2
-84760.2
-84760.2
-84760.2
-84760.2
-84760.2
-84760.1
-84760.1
-84760.1
-84760.1
-84760.1
-84760.1
-84760.1
-84760.1
-84760.1
-84760.1
-84760.1
-84760.1
-84760.1
-84760.1
-84760.1
-84760.1
-84760.1
-84794.1
-84794
-84793.6
-84793.1
-84792.6
-84792
-84791.4
-84790.8
-84790.2
-84789.6
-84789
-84788.4
-84787.8
-84787.1
-84786.5
-84785.9
-84785.3
-84784.7
-84784.1
-84783.4
-84782.8
-84782.2
-84781.6
-84780.9
-84780.3
-84779.7
-84779.1
-84778.4
-84777.8
-84777.2
-84776.6
-84775.9
-84775.3
-84775.3
-84775.3
-84775.3
-84775.3
-84775.3
-84775.3
-84775.2
-84775.2
-84775.2
-84775.2
-84775.2
-84775.2
-84775.2
-84775.2
-84775.2
-84775.2
-84775.2
-84775.1
-84775.1
-84775.1
-84775.1
-84775.1
-84775.1
-84775.1
-84775.1
-84775.1
-84775.1
-84775.1
-84775.1
-84775.1
-84775.1
-84775.1
-84775
-84775
-84775
-84775
-84775
-84775
-84775
-84775
-84775
-84775
-84775
-84775
-84775
-84775
-84775
-84810.3
-84810
-84809.5
-84808.9
-84808.3
-84807.7
-84807.1
-84806.4
-84805.8
-84805.2
-84804.5
-84803.9
-84803.3
-84802.6
-84802
-84801.4
-84800.8
-84800.1
-84799.5
-84798.9
-84798.2
-84797.6
-84797
-84796.3
-84795.7
-84795.1
-84794.4
-84793.8
-84793.1
-84792.5
-84791.9
-84791.2
-84790.6
-84790.6
-84790.6
-84790.6
-84790.6
-84790.6
-84790.6
-84790.6
-84790.5
-84790.5
-84790.5
-84790.5
-84790.5
-84790.5
-84790.5
-84790.5
-84790.5
-84790.5
-84790.5
-84790.5
-84790.5
-84790.5
-84790.5
-84790.5
-84790.5
-84790.5
-84790.4
-84790.4
-84790.4
-84790.4
-84790.4
-84790.4
-84790.4
-84790.4
-84790.4
-84790.4
-84790.4
-84790.4
-84790.4
-84790.4
-84790.4
-84790.4
-84790.4
-84790.4
-84790.4
-84790.4
-84790.4
-84790.4
-84827
-84826.3
-84825.6
-84825
-84824.4
-84823.7
-84823.1
-84822.4
-84821.8
-84821.1
-84820.5
-84819.8
-84819.2
-84818.6
-84817.9
-84817.3
-84816.6
-84816
-84815.3
-84814.7
-84814.1
-84813.4
-84812.8
-84812.1
-84811.5
-84810.8
-84810.2
-84809.5
-84808.9
-84808.2
-84807.6
-84806.9
-84806.3
-84806.3
-84806.3
-84806.3
-84806.3
-84806.3
-84806.3
-84806.3
-84806.3
-84806.3
-84806.3
-84806.3
-84806.3
-84806.3
-84806.3
-84806.3
-84806.3
-84806.3
-84806.3
-84806.3
-84806.3
-84806.3
-84806.3
-84806.3
-84806.3
-84806.3
-84806.3
-84806.3
-84806.3
-84806.3
-84806.3
-84806.2
-84806.2
-84806.2
-84806.2
-84806.2
-84806.2
-84806.2
-84806.2
-84806.2
-84806.2
-84806.2
-84806.2
-84806.2
-84806.2
-84806.2
-84806.2
-84806.2
-84842.7
-84842.5
-84841.9
-84841.3
-84840.7
-84840
-84839.4
-84838.8
-84838.1
-84837.5
-84836.8
-84836.2
-84835.5
-84834.9
-84834.2
-84833.6
-84832.9
-84832.3
-84831.6
-84831
-84830.3
-84829.7
-84829
-84828.4
-84827.7
-84827
-84826.4
-84825.7
-84825.1
-84824.4
-84823.8
-84823.1
-84822.4
-84822.5
-84822.5
-84822.5
-84822.5
-84822.5
-84822.5
-84822.5
-84822.5
-84822.5
-84822.5
-84822.5
-84822.5
-84822.5
-84822.5
-84822.5
-84822.5
-84822.5
-84822.5
-84822.5
-84822.5
-84822.5
-84822.5
-84822.5
-84822.5
-84822.5
-84822.5
-84822.5
-84822.5
-84822.5
-84822.5
-84822.5
-84822.5
-84822.5
-84822.5
-84822.5
-84822.5
-84822.5
-84822.5
-84822.5
-84822.5
-84822.5
-84822.5
-84822.5
-84822.5
-84822.5
-84822.5
-84822.5
-84858.9
-84858.8
-84858.4
-84857.9
-84857.3
-84856.7
-84856.1
-84855.4
-84854.8
-84854.2
-84853.5
-84852.9
-84852.2
-84851.6
-84850.9
-84850.3
-84849.6
-84848.9
-84848.3
-84847.6
-84847
-84846.3
-84845.7
-84845
-84844.3
-84843.7
-84843
-84842.4
-84841.7
-84841
-84840.4
-84839.7
-84839.1
-84839.1
-84839.1
-84839.1
-84839.1
-84839.2
-84839.2
-84839.2
-84839.2
-84839.2
-84839.2
-84839.2
-84839.2
-84839.2
-84839.2
-84839.2
-84839.2
-84839.2
-84839.2
-84839.2
-84839.2
-84839.2
-84839.2
-84839.2
-84839.2
-84839.2
-84839.2
-84839.2
-84839.2
-84839.2
-84839.2
-84839.2
-84839.2
-84839.2
-84839.2
-84839.2
-84839.2
-84839.2
-84839.2
-84839.2
-84839.2
-84839.2
-84839.2
-84839.2
-84839.2
-84839.2
-84839.2
-84839.2
-84875.6
-84875.5
-84875.2
-84874.7
-84874.2
-84873.7
-84873.1
-84872.5
-84871.9
-84871.2
-84870.6
-84869.9
-84869.3
-84868.7
-84868
-84867.3
-84866.7
-84866
-84865.4
-84864.7
-84864.1
-84863.4
-84862.7
-84862.1
-84861.4
-84860.7
-84860.1
-84859.4
-84858.7
-84858
-84857.4
-84856.7
-84856.1
-84856.1
-84856.2
-84856.2
-84856.2
-84856.2
-84856.3
-84856.3
-84856.3
-84856.3
-84856.3
-84856.3
-84856.3
-84856.4
-84856.4
-84856.4
-84856.4
-84856.4
-84856.4
-84856.4
-84856.4
-84856.4
-84856.4
-84856.4
-84856.4
-84856.4
-84856.4
-84856.4
-84856.4
-84856.4
-84856.4
-84856.4
-84856.4
-84856.4
-84856.4
-84856.4
-84856.4
-84856.4
-84856.4
-84856.4
-84856.4
-84856.4
-84856.4
-84856.4
-84856.4
-84856.4
-84856.4
-84856.4
-84892.6
-84892.5
-84892.3
-84892
-84891.5
-84891
-84890.5
-84889.9
-84889.3
-84888.7
-84888
-84887.4
-84886.8
-84886.1
-84885.5
-84884.8
-84884.2
-84883.5
-84882.8
-84882.2
-84881.5
-84880.8
-84880.2
-84879.5
-84878.8
-84878.2
-84877.5
-84876.8
-84876.1
-84875.5
-84874.8
-84874.1
-84873.6
-84873.6
-84873.7
-84873.7
-84873.7
-84873.8
-84873.8
-84873.8
-84873.8
-84873.9
-84873.9
-84873.9
-84873.9
-84873.9
-84873.9
-84873.9
-84874
-84874
-84874
-84874
-84874
-84874
-84874
-84874
-84874
-84874
-84874
-84874
-84874
-84874
-84874
-84874
-84874
-84874
-84874
-84874
-84874
-84874
-84874
-84874
-84874
-84874
-84874
-84874
-84874
-84874
-84874
-84874
-84910.1
-84910
-84909.8
-84909.5
-84909.1
-84908.7
-84908.2
-84907.6
-84907.1
-84906.5
-84905.9
-84905.2
-84904.6
-84904
-84903.3
-84902.7
-84902
-84901.4
-84900.7
-84900.1
-84899.4
-84898.7
-84898.1
-84897.4
-84896.7
-84896
-84895.4
-84894.7
-84894
-84893.3
-84892.6
-84891.9
-84891.5
-84891.6
-84891.6
-84891.7
-84891.7
-84891.7
-84891.8
-84891.8
-84891.8
-84891.8
-84891.9
-84891.9
-84891.9
-84891.9
-84891.9
-84891.9
-84892
-84892
-84892
-84892
-84892
-84892
-84892
-84892
-84892
-84892
-84892
-84892
-84892
-84892
-84892
-84892
-84892
-84892
-84892
-84892
-84892
-84892.1
-84892.1
-84892.1
-84892.1
-84892.1
-84892.1
-84892.1
-84892.1
-84892.1
-84892.1
-84892.1
-84928
-84927.9
-84927.8
-84927.5
-84927.2
-84926.7
-84926.3
-84925.8
-84925.2
-84924.6
-84924.1
-84923.5
-84922.8
-84922.2
-84921.6
-84920.9
-84920.3
-84919.7
-84919
-84918.3
-84917.7
-84917
-84916.3
-84915.7
-84915
-84914.3
-84913.6
-84912.9
-84912.3
-84911.6
-84910.9
-84910.2
-84909.9
-84910
-84910
-84910.1
-84910.1
-84910.1
-84910.2
-84910.2
-84910.2
-84910.3
-84910.3
-84910.3
-84910.3
-84910.4
-84910.4
-84910.4
-84910.4
-84910.4
-84910.4
-84910.4
-84910.5
-84910.5
-84910.5
-84910.5
-84910.5
-84910.5
-84910.5
-84910.5
-84910.5
-84910.5
-84910.5
-84910.5
-84910.5
-84910.5
-84910.5
-84910.5
-84910.5
-84910.5
-84910.5
-84910.5
-84910.5
-84910.5
-84910.5
-84910.5
-84910.5
-84910.5
-84910.5
-84910.5
-84946.3
-84946.2
-84946.1
-84945.8
-84945.5
-84945.2
-84944.7
-84944.2
-84943.7
-84943.2
-84942.6
-84942
-84941.5
-84940.8
-84940.2
-84939.6
-84939
-84938.3
-84937.6
-84937
-84936.3
-84935.7
-84935
-84934.3
-84933.6
-84933
-84932.3
-84931.6
-84930.9
-84930.2
-84929.5
-84928.8
-84928.7
-84928.8
-84928.8
-84928.9
-84928.9
-84929
-84929
-84929.1
-84929.1
-84929.1
-84929.2
-84929.2
-84929.2
-84929.2
-84929.3
-84929.3
-84929.3
-84929.3
-84929.3
-84929.3
-84929.3
-84929.4
-84929.4
-84929.4
-84929.4
-84929.4
-84929.4
-84929.4
-84929.4
-84929.4
-84929.4
-84929.4
-84929.4
-84929.4
-84929.4
-84929.4
-84929.4
-84929.4
-84929.5
-84929.5
-84929.5
-84929.5
-84929.5
-84929.5
-84929.5
-84929.5
-84929.5
-84929.5
-84965
-84964.9
-84964.8
-84964.6
-84964.3
-84964
-84963.6
-84963.1
-84962.6
-84962.1
-84961.6
-84961
-84960.4
-84959.8
-84959.2
-84958.6
-84958
-84957.3
-84956.7
-84956
-84955.4
-84954.7
-84954.1
-84953.4
-84952.7
-84952
-84951.3
-84950.7
-84950
-84949.3
-84948.6
-84947.9
-84948
-84948
-84948.1
-84948.2
-84948.2
-84948.3
-84948.3
-84948.4
-84948.4
-84948.4
-84948.5
-84948.5
-84948.5
-84948.5
-84948.6
-84948.6
-84948.6
-84948.6
-84948.6
-84948.7
-84948.7
-84948.7
-84948.7
-84948.7
-84948.7
-84948.7
-84948.7
-84948.7
-84948.7
-84948.8
-84948.8
-84948.8
-84948.8
-84948.8
-84948.8
-84948.8
-84948.8
-84948.8
-84948.8
-84948.8
-84948.8
-84948.8
-84948.8
-84948.8
-84948.8
-84948.8
-84948.8
-84948.8
-84984.1
-84984
-84983.9
-84983.7
-84983.5
-84983.2
-84982.8
-84982.4
-84981.9
-84981.4
-84980.9
-84980.4
-84979.8
-84979.2
-84978.6
-84978
-84977.4
-84976.8
-84976.1
-84975.5
-84974.8
-84974.2
-84973.5
-84972.8
-84972.2
-84971.5
-84970.8
-84970.1
-84969.4
-84968.7
-84968
-84967.6
-84967.6
-84967.7
-84967.8
-84967.9
-84967.9
-84968
-84968