/*--------------------------------*- C++ -*----------------------------------*\
| =========                 |                                                 |
| \\      /  F ield         | OpenFOAM: The Open Source CFD Toolbox           |
|  \\    /   O peration     | Version:  v2012                                 |
|   \\  /    A nd           | Website:  www.openfoam.com                      |
|    \\/     M anipulation  |                                                 |
\*---------------------------------------------------------------------------*/
FoamFile
{
    version     2.0;
    format      ascii;
    class       volScalarField;
    location    "0";
    object      ph_rgh;
}
// * * * * * * * * * * * * * * * * * * * * * * * * * * * * * * * * * * * * * //

dimensions      [1 -1 -2 0 0 0 0];


internalField   nonuniform List<scalar> 
65536
(
96644.8
96644.6
96644.1
96643.4
96642.5
96641.4
96640
96638.5
96636.7
96634.7
96632.4
96630
96627.4
96624.5
96621.5
96618.3
96614.8
96611.2
96607.5
96603.5
96599.4
96595.1
96590.6
96586
96581.3
96576.4
96571.4
96566.3
96561
96555.7
96550.2
96544.6
96539
96533.2
96527.4
96521.5
96515.5
96509.5
96503.4
96497.3
96491.2
96485
96478.7
96472.5
96466.3
96460
96453.7
96447.5
96441.2
96435
96428.8
96422.6
96416.4
96410.3
96404.2
96398.1
96392.1
96386.1
96380.2
96374.3
96368.5
96362.8
96357.1
96351.5
96345.9
96340.5
96335
96329.7
96324.5
96319.3
96314.2
96309.1
96304.2
96299.3
96294.5
96289.8
96285.2
96280.7
96276.2
96271.8
96267.5
96263.3
96259.2
96255.1
96251.2
96247.3
96243.5
96239.7
96236.1
96232.5
96229
96225.6
96222.2
96218.9
96215.7
96212.6
96209.5
96206.5
96203.6
96200.7
96197.9
96195.2
96192.5
96189.9
96187.4
96184.9
96182.4
96180.1
96177.8
96175.5
96173.3
96171.1
96169
96167
96165
96163
96161.1
96159.3
96157.5
96155.7
96154
96152.3
96150.6
96149
96147.5
96145.9
96144.5
96143
96141.6
96140.2
96138.9
96137.6
96136.3
96135
96133.8
96132.6
96131.5
96130.4
96129.3
96128.2
96127.1
96126.1
96125.1
96124.2
96123.2
96122.3
96121.4
96120.5
96119.7
96118.9
96118
96117.3
96116.5
96115.7
96115
96114.3
96113.6
96112.9
96112.3
96111.6
96111
96110.4
96109.8
96109.2
96108.6
96108.1
96107.5
96107
96106.5
96106
96105.5
96105
96104.6
96104.1
96103.7
96103.3
96102.8
96102.4
96102
96101.7
96101.3
96100.9
96100.6
96100.2
96099.9
96099.5
96099.2
96098.9
96098.6
96098.3
96098
96097.7
96097.4
96097.2
96096.9
96096.6
96096.4
96096.1
96095.9
96095.7
96095.4
96095.2
96095
96094.8
96094.6
96094.4
96094.2
96094
96093.8
96093.6
96093.5
96093.3
96093.1
96093
96092.8
96092.7
96092.5
96092.4
96092.2
96092.1
96091.9
96091.8
96091.7
96091.5
96091.4
96091.3
96091.2
96091.1
96091
96090.9
96090.7
96090.6
96090.5
96090.4
96090.4
96090.3
96090.2
96090.1
96090
96089.9
96089.8
96089.7
96089.7
96089.6
96089.5
96089.4
96089.4
96089.3
96089.2
96089.2
96089.1
96089
96089
96088.9
96088.9
96088.8
96088.8
96088.7
96088.7
96088.6
96088.6
96088.5
96088.5
96088.4
96088.4
96088.3
96088.3
96088.2
96088.2
96088.2
96088.1
96088.1
96088.1
96088
96088
96087.9
96087.9
96087.9
96087.9
96087.8
96087.8
96087.8
96087.7
96087.7
96087.7
96087.7
96087.6
96087.6
96087.6
96087.6
96087.5
96087.5
96087.5
96087.5
96087.4
96087.4
96087.4
96087.4
96087.4
96087.3
96087.3
96087.3
96087.3
96087.3
96087.3
96087.2
96087.2
96087.2
96087.2
96087.2
96087.2
96087.2
96087.1
96087.1
96087.1
96087.1
96087.1
96087.1
96087.1
96087.1
96087.1
96087
96087
96087
96087
96087
96087
96087
96087
96087
96087
96087
96086.9
96086.9
96086.9
96086.9
96086.9
96086.9
96086.9
96086.9
96086.9
96086.9
96086.9
96086.9
96086.9
96086.9
96086.9
96086.8
96086.8
96086.8
96086.8
96086.8
96086.8
96086.8
96086.8
96086.8
96086.8
96086.8
96086.8
96086.8
96086.8
96086.8
96086.8
96086.8
96086.8
96086.8
96086.8
96086.8
96086.8
96086.8
96086.8
96086.7
96086.7
96086.7
96086.7
96086.7
96086.7
96086.7
96086.7
96086.7
96086.7
96086.7
96086.7
96086.7
96086.7
96086.7
96086.7
96086.7
96086.7
96086.7
96086.7
96086.7
96086.7
96086.7
96086.7
96086.7
96086.7
96086.7
96086.7
96086.7
96086.7
96086.7
96086.7
96086.7
96086.7
96086.7
96086.7
96086.7
96086.7
96086.7
96086.7
96086.7
96086.7
96086.7
96086.7
96086.7
96086.7
96086.7
96086.7
96086.7
96086.7
96086.7
96086.7
96086.7
96086.7
96086.7
96086.7
96086.7
96086.7
96086.7
96086.7
96086.7
96086.7
96086.7
96086.7
96086.7
96086.7
96086.7
96086.7
96086.7
96086.7
96086.7
96086.7
96086.7
96086.7
96086.7
96086.7
96086.7
96086.7
96086.7
96086.6
96086.6
96086.6
96086.6
96086.6
96086.6
96086.6
96086.6
96086.6
96086.6
96086.6
96086.6
96086.6
96086.6
96086.6
96086.6
96086.6
96086.6
96086.6
96086.6
96086.6
96086.6
96086.6
96086.6
96086.6
96086.6
96086.6
96086.6
96086.6
96086.6
96086.6
96086.6
96086.6
96086.6
96086.6
96086.6
96086.6
96086.6
96086.6
96086.6
96086.6
96086.6
96086.6
96086.6
96086.6
96086.6
96086.6
96086.6
96086.6
96086.6
96086.6
96086.6
96086.6
96086.6
96086.6
96086.6
96086.6
96086.6
96086.6
96086.6
96086.6
96086.6
96640.5
96640.3
96639.8
96639.1
96638.2
96637.1
96635.7
96634.2
96632.4
96630.4
96628.1
96625.7
96623.1
96620.2
96617.2
96613.9
96610.5
96606.9
96603.1
96599.2
96595
96590.7
96586.3
96581.7
96576.9
96572.1
96567
96561.9
96556.6
96551.3
96545.8
96540.2
96534.5
96528.8
96522.9
96517
96511.1
96505
96499
96492.8
96486.7
96480.5
96474.3
96468
96461.8
96455.5
96449.2
96443
96436.7
96430.5
96424.2
96418
96411.9
96405.7
96399.6
96393.5
96387.5
96381.6
96375.6
96369.8
96364
96358.2
96352.5
96346.9
96341.4
96335.9
96330.5
96325.1
96319.9
96314.7
96309.6
96304.6
96299.6
96294.7
96290
96285.3
96280.6
96276.1
96271.6
96267.3
96263
96258.7
96254.6
96250.6
96246.6
96242.7
96238.9
96235.2
96231.5
96227.9
96224.4
96221
96217.6
96214.4
96211.2
96208
96205
96202
96199
96196.2
96193.4
96190.6
96188
96185.4
96182.8
96180.3
96177.9
96175.5
96173.2
96170.9
96168.7
96166.6
96164.5
96162.4
96160.4
96158.5
96156.6
96154.7
96152.9
96151.1
96149.4
96147.7
96146.1
96144.5
96142.9
96141.4
96139.9
96138.5
96137.1
96135.7
96134.3
96133
96131.8
96130.5
96129.3
96128.1
96127
96125.8
96124.7
96123.7
96122.6
96121.6
96120.6
96119.6
96118.7
96117.8
96116.9
96116
96115.2
96114.3
96113.5
96112.7
96112
96111.2
96110.5
96109.8
96109.1
96108.4
96107.7
96107.1
96106.5
96105.9
96105.3
96104.7
96104.1
96103.6
96103
96102.5
96102
96101.5
96101
96100.5
96100.1
96099.6
96099.2
96098.8
96098.3
96097.9
96097.5
96097.1
96096.8
96096.4
96096
96095.7
96095.4
96095
96094.7
96094.4
96094.1
96093.8
96093.5
96093.2
96092.9
96092.7
96092.4
96092.1
96091.9
96091.6
96091.4
96091.2
96090.9
96090.7
96090.5
96090.3
96090.1
96089.9
96089.7
96089.5
96089.3
96089.1
96089
96088.8
96088.6
96088.5
96088.3
96088.2
96088
96087.9
96087.7
96087.6
96087.4
96087.3
96087.2
96087
96086.9
96086.8
96086.7
96086.6
96086.5
96086.4
96086.2
96086.1
96086
96085.9
96085.9
96085.8
96085.7
96085.6
96085.5
96085.4
96085.3
96085.2
96085.2
96085.1
96085
96084.9
96084.9
96084.8
96084.7
96084.7
96084.6
96084.5
96084.5
96084.4
96084.4
96084.3
96084.3
96084.2
96084.2
96084.1
96084.1
96084
96084
96083.9
96083.9
96083.8
96083.8
96083.7
96083.7
96083.7
96083.6
96083.6
96083.6
96083.5
96083.5
96083.4
96083.4
96083.4
96083.4
96083.3
96083.3
96083.3
96083.2
96083.2
96083.2
96083.2
96083.1
96083.1
96083.1
96083.1
96083
96083
96083
96083
96082.9
96082.9
96082.9
96082.9
96082.9
96082.9
96082.8
96082.8
96082.8
96082.8
96082.8
96082.7
96082.7
96082.7
96082.7
96082.7
96082.7
96082.7
96082.6
96082.6
96082.6
96082.6
96082.6
96082.6
96082.6
96082.6
96082.6
96082.5
96082.5
96082.5
96082.5
96082.5
96082.5
96082.5
96082.5
96082.5
96082.5
96082.5
96082.4
96082.4
96082.4
96082.4
96082.4
96082.4
96082.4
96082.4
96082.4
96082.4
96082.4
96082.4
96082.4
96082.4
96082.4
96082.3
96082.3
96082.3
96082.3
96082.3
96082.3
96082.3
96082.3
96082.3
96082.3
96082.3
96082.3
96082.3
96082.3
96082.3
96082.3
96082.3
96082.3
96082.3
96082.3
96082.3
96082.3
96082.3
96082.3
96082.3
96082.2
96082.2
96082.2
96082.2
96082.2
96082.2
96082.2
96082.2
96082.2
96082.2
96082.2
96082.2
96082.2
96082.2
96082.2
96082.2
96082.2
96082.2
96082.2
96082.2
96082.2
96082.2
96082.2
96082.2
96082.2
96082.2
96082.2
96082.2
96082.2
96082.2
96082.2
96082.2
96082.2
96082.2
96082.2
96082.2
96082.2
96082.2
96082.2
96082.2
96082.2
96082.2
96082.2
96082.2
96082.2
96082.2
96082.2
96082.2
96082.2
96082.2
96082.2
96082.2
96082.2
96082.2
96082.2
96082.2
96082.2
96082.2
96082.2
96082.2
96082.2
96082.2
96082.2
96082.2
96082.2
96082.2
96082.2
96082.2
96082.2
96082.2
96082.2
96082.2
96082.2
96082.2
96082.2
96082.2
96082.2
96082.2
96082.2
96082.2
96082.2
96082.2
96082.1
96082.1
96082.1
96082.1
96082.1
96082.1
96082.1
96082.1
96082.1
96082.1
96082.1
96082.1
96082.1
96082.1
96082.1
96082.1
96082.1
96082.1
96082.1
96082.1
96082.1
96082.1
96082.1
96082.1
96082.1
96082.1
96082.1
96082.1
96082.1
96082.1
96082.1
96082.1
96082.1
96082.1
96082.1
96082.1
96082.1
96082.1
96082.1
96082.1
96082.1
96082.1
96082.1
96082.1
96082.1
96082.1
96082.1
96082.1
96082.1
96082.1
96082.1
96082.1
96082.1
96082.1
96082.1
96082.1
96082.1
96082.1
96632
96631.7
96631.3
96630.6
96629.7
96628.5
96627.2
96625.6
96623.8
96621.8
96619.5
96617.1
96614.5
96611.6
96608.6
96605.3
96601.9
96598.3
96594.5
96590.5
96586.3
96582
96577.6
96573
96568.2
96563.3
96558.3
96553.1
96547.9
96542.5
96537
96531.4
96525.7
96519.9
96514.1
96508.2
96502.2
96496.1
96490.1
96483.9
96477.7
96471.5
96465.3
96459
96452.8
96446.5
96440.2
96433.9
96427.7
96421.4
96415.2
96409
96402.8
96396.6
96390.5
96384.5
96378.4
96372.5
96366.5
96360.7
96354.8
96349.1
96343.4
96337.8
96332.2
96326.7
96321.3
96316
96310.7
96305.5
96300.4
96295.4
96290.5
96285.6
96280.8
96276.1
96271.5
96266.9
96262.5
96258.1
96253.8
96249.6
96245.5
96241.4
96237.4
96233.6
96229.7
96226
96222.4
96218.8
96215.3
96211.9
96208.5
96205.2
96202
96198.9
96195.8
96192.8
96189.9
96187
96184.2
96181.5
96178.8
96176.2
96173.7
96171.2
96168.8
96166.4
96164.1
96161.9
96159.6
96157.5
96155.4
96153.4
96151.4
96149.4
96147.5
96145.6
96143.8
96142.1
96140.3
96138.7
96137
96135.4
96133.9
96132.3
96130.9
96129.4
96128
96126.6
96125.3
96124
96122.7
96121.5
96120.2
96119.1
96117.9
96116.8
96115.7
96114.6
96113.6
96112.6
96111.6
96110.6
96109.7
96108.8
96107.9
96107
96106.1
96105.3
96104.5
96103.7
96102.9
96102.2
96101.5
96100.8
96100.1
96099.4
96098.7
96098.1
96097.5
96096.8
96096.3
96095.7
96095.1
96094.6
96094
96093.5
96093
96092.5
96092
96091.5
96091.1
96090.6
96090.2
96089.7
96089.3
96088.9
96088.5
96088.1
96087.8
96087.4
96087
96086.7
96086.4
96086
96085.7
96085.4
96085.1
96084.8
96084.5
96084.2
96083.9
96083.7
96083.4
96083.1
96082.9
96082.6
96082.4
96082.2
96081.9
96081.7
96081.5
96081.3
96081.1
96080.9
96080.7
96080.5
96080.3
96080.2
96080
96079.8
96079.6
96079.5
96079.3
96079.2
96079
96078.9
96078.7
96078.6
96078.4
96078.3
96078.2
96078.1
96077.9
96077.8
96077.7
96077.6
96077.5
96077.4
96077.3
96077.2
96077.1
96077
96076.9
96076.8
96076.7
96076.6
96076.5
96076.4
96076.3
96076.3
96076.2
96076.1
96076
96076
96075.9
96075.8
96075.8
96075.7
96075.6
96075.6
96075.5
96075.4
96075.4
96075.3
96075.3
96075.2
96075.2
96075.1
96075.1
96075
96075
96074.9
96074.9
96074.8
96074.8
96074.8
96074.7
96074.7
96074.6
96074.6
96074.6
96074.5
96074.5
96074.5
96074.4
96074.4
96074.4
96074.3
96074.3
96074.3
96074.3
96074.2
96074.2
96074.2
96074.1
96074.1
96074.1
96074.1
96074.1
96074
96074
96074
96074
96073.9
96073.9
96073.9
96073.9
96073.9
96073.8
96073.8
96073.8
96073.8
96073.8
96073.8
96073.8
96073.7
96073.7
96073.7
96073.7
96073.7
96073.7
96073.7
96073.6
96073.6
96073.6
96073.6
96073.6
96073.6
96073.6
96073.6
96073.6
96073.5
96073.5
96073.5
96073.5
96073.5
96073.5
96073.5
96073.5
96073.5
96073.5
96073.5
96073.4
96073.4
96073.4
96073.4
96073.4
96073.4
96073.4
96073.4
96073.4
96073.4
96073.4
96073.4
96073.4
96073.4
96073.4
96073.4
96073.3
96073.3
96073.3
96073.3
96073.3
96073.3
96073.3
96073.3
96073.3
96073.3
96073.3
96073.3
96073.3
96073.3
96073.3
96073.3
96073.3
96073.3
96073.3
96073.3
96073.3
96073.3
96073.3
96073.3
96073.3
96073.3
96073.3
96073.3
96073.2
96073.2
96073.2
96073.2
96073.2
96073.2
96073.2
96073.2
96073.2
96073.2
96073.2
96073.2
96073.2
96073.2
96073.2
96073.2
96073.2
96073.2
96073.2
96073.2
96073.2
96073.2
96073.2
96073.2
96073.2
96073.2
96073.2
96073.2
96073.2
96073.2
96073.2
96073.2
96073.2
96073.2
96073.2
96073.2
96073.2
96073.2
96073.2
96073.2
96073.2
96073.2
96073.2
96073.2
96073.2
96073.2
96073.2
96073.2
96073.2
96073.2
96073.2
96073.2
96073.2
96073.2
96073.2
96073.2
96073.2
96073.2
96073.2
96073.2
96073.2
96073.2
96073.2
96073.2
96073.2
96073.2
96073.2
96073.2
96073.2
96073.2
96073.2
96073.2
96073.2
96073.2
96073.2
96073.2
96073.2
96073.2
96073.2
96073.2
96073.2
96073.2
96073.2
96073.2
96073.2
96073.2
96073.2
96073.2
96073.2
96073.2
96073.2
96073.2
96073.2
96073.2
96073.2
96073.2
96073.2
96073.2
96073.2
96073.2
96073.2
96073.2
96073.2
96073.2
96073.2
96073.2
96073.2
96073.2
96073.2
96073.2
96073.2
96073.2
96073.2
96073.2
96073.2
96073.2
96073.2
96073.2
96073.2
96073.2
96073.2
96073.2
96073.2
96073.2
96073.2
96073.2
96073.2
96073.2
96073.2
96073.2
96073.2
96073.2
96073.2
96073.2
96619.2
96619
96618.5
96617.8
96616.9
96615.7
96614.4
96612.8
96611
96609
96606.7
96604.3
96601.6
96598.7
96595.7
96592.4
96589
96585.3
96581.5
96577.5
96573.4
96569.1
96564.6
96559.9
96555.2
96550.3
96545.2
96540
96534.7
96529.3
96523.8
96518.2
96512.5
96506.7
96500.8
96494.9
96488.9
96482.8
96476.7
96470.6
96464.4
96458.2
96451.9
96445.6
96439.3
96433.1
96426.8
96420.5
96414.2
96407.9
96401.7
96395.4
96389.2
96383.1
96377
96370.9
96364.8
96358.8
96352.9
96347
96341.2
96335.4
96329.7
96324.1
96318.6
96313.1
96307.7
96302.3
96297
96291.9
96286.7
96281.7
96276.8
96271.9
96267.1
96262.4
96257.8
96253.2
96248.8
96244.4
96240.1
96235.9
96231.8
96227.7
96223.8
96219.9
96216.1
96212.3
96208.7
96205.1
96201.6
96198.2
96194.8
96191.6
96188.4
96185.2
96182.2
96179.2
96176.3
96173.4
96170.6
96167.9
96165.2
96162.6
96160.1
96157.6
96155.2
96152.8
96150.5
96148.3
96146.1
96143.9
96141.8
96139.8
96137.8
96135.8
96133.9
96132.1
96130.3
96128.5
96126.8
96125.1
96123.5
96121.9
96120.3
96118.8
96117.3
96115.9
96114.5
96113.1
96111.8
96110.4
96109.2
96107.9
96106.7
96105.5
96104.4
96103.3
96102.2
96101.1
96100.1
96099.1
96098.1
96097.1
96096.2
96095.3
96094.4
96093.5
96092.6
96091.8
96091
96090.2
96089.5
96088.7
96088
96087.3
96086.6
96085.9
96085.2
96084.6
96084
96083.4
96082.8
96082.2
96081.6
96081.1
96080.5
96080
96079.5
96079
96078.5
96078.1
96077.6
96077.2
96076.7
96076.3
96075.9
96075.5
96075.1
96074.7
96074.3
96073.9
96073.6
96073.2
96072.9
96072.6
96072.2
96071.9
96071.6
96071.3
96071
96070.8
96070.5
96070.2
96069.9
96069.7
96069.4
96069.2
96069
96068.7
96068.5
96068.3
96068.1
96067.9
96067.7
96067.5
96067.3
96067.1
96066.9
96066.7
96066.5
96066.4
96066.2
96066
96065.9
96065.7
96065.6
96065.4
96065.3
96065.1
96065
96064.9
96064.7
96064.6
96064.5
96064.4
96064.3
96064.1
96064
96063.9
96063.8
96063.7
96063.6
96063.5
96063.4
96063.3
96063.2
96063.2
96063.1
96063
96062.9
96062.8
96062.7
96062.7
96062.6
96062.5
96062.5
96062.4
96062.3
96062.3
96062.2
96062.1
96062.1
96062
96062
96061.9
96061.8
96061.8
96061.7
96061.7
96061.6
96061.6
96061.5
96061.5
96061.5
96061.4
96061.4
96061.3
96061.3
96061.2
96061.2
96061.2
96061.1
96061.1
96061.1
96061
96061
96061
96060.9
96060.9
96060.9
96060.8
96060.8
96060.8
96060.8
96060.7
96060.7
96060.7
96060.7
96060.6
96060.6
96060.6
96060.6
96060.6
96060.5
96060.5
96060.5
96060.5
96060.5
96060.4
96060.4
96060.4
96060.4
96060.4
96060.4
96060.3
96060.3
96060.3
96060.3
96060.3
96060.3
96060.2
96060.2
96060.2
96060.2
96060.2
96060.2
96060.2
96060.2
96060.2
96060.1
96060.1
96060.1
96060.1
96060.1
96060.1
96060.1
96060.1
96060.1
96060.1
96060
96060
96060
96060
96060
96060
96060
96060
96060
96060
96060
96060
96060
96060
96060
96059.9
96059.9
96059.9
96059.9
96059.9
96059.9
96059.9
96059.9
96059.9
96059.9
96059.9
96059.9
96059.9
96059.9
96059.9
96059.9
96059.9
96059.9
96059.9
96059.9
96059.9
96059.9
96059.9
96059.8
96059.8
96059.8
96059.8
96059.8
96059.8
96059.8
96059.8
96059.8
96059.8
96059.8
96059.8
96059.8
96059.8
96059.8
96059.8
96059.8
96059.8
96059.8
96059.8
96059.8
96059.8
96059.8
96059.8
96059.8
96059.8
96059.8
96059.8
96059.8
96059.8
96059.8
96059.8
96059.8
96059.8
96059.8
96059.8
96059.8
96059.8
96059.8
96059.8
96059.8
96059.8
96059.8
96059.8
96059.8
96059.8
96059.8
96059.8
96059.8
96059.8
96059.8
96059.8
96059.8
96059.8
96059.8
96059.8
96059.8
96059.8
96059.8
96059.8
96059.8
96059.7
96059.7
96059.7
96059.7
96059.7
96059.7
96059.7
96059.7
96059.7
96059.7
96059.7
96059.7
96059.7
96059.7
96059.7
96059.7
96059.7
96059.7
96059.7
96059.7
96059.7
96059.7
96059.7
96059.7
96059.7
96059.7
96059.7
96059.7
96059.7
96059.7
96059.7
96059.7
96059.7
96059.7
96059.7
96059.7
96059.7
96059.7
96059.7
96059.7
96059.7
96059.7
96059.7
96059.7
96059.7
96059.7
96059.7
96059.7
96059.7
96059.7
96059.7
96059.7
96059.7
96059.7
96059.7
96059.7
96059.7
96059.7
96059.7
96059.7
96059.7
96059.7
96059.7
96059.7
96059.7
96059.7
96059.7
96059.7
96059.7
96059.7
96059.7
96059.7
96059.7
96059.7
96059.7
96059.7
96059.7
96059.7
96059.7
96059.7
96059.7
96059.7
96059.7
96602.2
96602
96601.5
96600.8
96599.9
96598.7
96597.4
96595.8
96593.9
96591.9
96589.6
96587.2
96584.5
96581.6
96578.5
96575.3
96571.8
96568.1
96564.3
96560.3
96556.1
96551.8
96547.3
96542.6
96537.8
96532.9
96527.8
96522.6
96517.3
96511.8
96506.3
96500.7
96494.9
96489.1
96483.2
96477.3
96471.2
96465.1
96459
96452.8
96446.6
96440.3
96434.1
96427.8
96421.5
96415.1
96408.8
96402.5
96396.2
96389.9
96383.7
96377.4
96371.2
96365
96358.9
96352.8
96346.7
96340.7
96334.8
96328.9
96323.1
96317.3
96311.6
96305.9
96300.4
96294.9
96289.5
96284.1
96278.8
96273.6
96268.5
96263.5
96258.5
96253.7
96248.9
96244.2
96239.6
96235
96230.6
96226.2
96221.9
96217.7
96213.6
96209.5
96205.5
96201.7
96197.9
96194.1
96190.5
96186.9
96183.4
96180
96176.7
96173.4
96170.2
96167.1
96164
96161
96158.1
96155.3
96152.5
96149.7
96147.1
96144.5
96142
96139.5
96137.1
96134.7
96132.4
96130.1
96127.9
96125.8
96123.7
96121.7
96119.7
96117.7
96115.9
96114
96112.2
96110.4
96108.7
96107.1
96105.4
96103.8
96102.3
96100.8
96099.3
96097.8
96096.4
96095.1
96093.7
96092.4
96091.2
96089.9
96088.7
96087.5
96086.4
96085.3
96084.2
96083.1
96082.1
96081.1
96080.1
96079.1
96078.2
96077.3
96076.4
96075.5
96074.7
96073.8
96073
96072.3
96071.5
96070.8
96070
96069.3
96068.6
96068
96067.3
96066.7
96066
96065.4
96064.8
96064.3
96063.7
96063.1
96062.6
96062.1
96061.6
96061.1
96060.6
96060.1
96059.7
96059.2
96058.8
96058.4
96057.9
96057.5
96057.2
96056.8
96056.4
96056
96055.7
96055.3
96055
96054.7
96054.3
96054
96053.7
96053.4
96053.1
96052.8
96052.6
96052.3
96052
96051.8
96051.5
96051.3
96051.1
96050.8
96050.6
96050.4
96050.2
96050
96049.8
96049.6
96049.4
96049.2
96049
96048.8
96048.6
96048.5
96048.3
96048.1
96048
96047.8
96047.7
96047.5
96047.4
96047.2
96047.1
96047
96046.9
96046.7
96046.6
96046.5
96046.4
96046.3
96046.1
96046
96045.9
96045.8
96045.7
96045.6
96045.5
96045.4
96045.4
96045.3
96045.2
96045.1
96045
96044.9
96044.9
96044.8
96044.7
96044.6
96044.6
96044.5
96044.4
96044.4
96044.3
96044.2
96044.2
96044.1
96044.1
96044
96044
96043.9
96043.9
96043.8
96043.8
96043.7
96043.7
96043.6
96043.6
96043.5
96043.5
96043.4
96043.4
96043.4
96043.3
96043.3
96043.3
96043.2
96043.2
96043.2
96043.1
96043.1
96043.1
96043
96043
96043
96042.9
96042.9
96042.9
96042.9
96042.8
96042.8
96042.8
96042.8
96042.7
96042.7
96042.7
96042.7
96042.7
96042.6
96042.6
96042.6
96042.6
96042.6
96042.5
96042.5
96042.5
96042.5
96042.5
96042.5
96042.4
96042.4
96042.4
96042.4
96042.4
96042.4
96042.4
96042.3
96042.3
96042.3
96042.3
96042.3
96042.3
96042.3
96042.3
96042.3
96042.2
96042.2
96042.2
96042.2
96042.2
96042.2
96042.2
96042.2
96042.2
96042.2
96042.2
96042.1
96042.1
96042.1
96042.1
96042.1
96042.1
96042.1
96042.1
96042.1
96042.1
96042.1
96042.1
96042.1
96042.1
96042.1
96042.1
96042
96042
96042
96042
96042
96042
96042
96042
96042
96042
96042
96042
96042
96042
96042
96042
96042
96042
96042
96042
96042
96042
96042
96042
96042
96042
96041.9
96041.9
96041.9
96041.9
96041.9
96041.9
96041.9
96041.9
96041.9
96041.9
96041.9
96041.9
96041.9
96041.9
96041.9
96041.9
96041.9
96041.9
96041.9
96041.9
96041.9
96041.9
96041.9
96041.9
96041.9
96041.9
96041.9
96041.9
96041.9
96041.9
96041.9
96041.9
96041.9
96041.9
96041.9
96041.9
96041.9
96041.9
96041.9
96041.9
96041.9
96041.9
96041.9
96041.9
96041.9
96041.9
96041.9
96041.9
96041.9
96041.9
96041.9
96041.9
96041.9
96041.9
96041.9
96041.9
96041.9
96041.9
96041.9
96041.9
96041.9
96041.9
96041.9
96041.9
96041.9
96041.9
96041.9
96041.9
96041.9
96041.9
96041.9
96041.9
96041.9
96041.9
96041.9
96041.9
96041.9
96041.9
96041.9
96041.9
96041.9
96041.9
96041.9
96041.9
96041.9
96041.9
96041.9
96041.9
96041.9
96041.9
96041.9
96041.9
96041.9
96041.9
96041.9
96041.9
96041.9
96041.9
96041.9
96041.9
96041.9
96041.9
96041.9
96041.9
96041.9
96041.9
96041.9
96041.9
96041.9
96041.9
96041.9
96041.9
96041.9
96041.9
96041.9
96041.9
96041.9
96041.9
96041.9
96041.9
96041.9
96041.9
96041.9
96041.9
96041.9
96041.9
96041.9
96041.9
96041.9
96041.9
96041.9
96041.9
96041.9
96041.9
96041.9
96041.9
96041.9
96581
96580.8
96580.3
96579.6
96578.7
96577.5
96576.2
96574.5
96572.7
96570.7
96568.4
96565.9
96563.2
96560.3
96557.2
96553.9
96550.4
96546.7
96542.9
96538.8
96534.6
96530.2
96525.7
96521
96516.2
96511.2
96506.1
96500.9
96495.5
96490.1
96484.5
96478.8
96473
96467.2
96461.3
96455.3
96449.2
96443.1
96436.9
96430.7
96424.4
96418.2
96411.9
96405.5
96399.2
96392.8
96386.5
96380.2
96373.8
96367.5
96361.2
96355
96348.7
96342.5
96336.4
96330.2
96324.2
96318.2
96312.2
96306.3
96300.4
96294.6
96288.9
96283.3
96277.7
96272.2
96266.8
96261.4
96256.1
96250.9
96245.8
96240.8
96235.8
96231
96226.2
96221.5
96216.8
96212.3
96207.8
96203.5
96199.2
96195
96190.8
96186.8
96182.8
96179
96175.2
96171.4
96167.8
96164.2
96160.7
96157.3
96154
96150.7
96147.5
96144.4
96141.4
96138.4
96135.5
96132.6
96129.8
96127.1
96124.5
96121.9
96119.4
96116.9
96114.5
96112.1
96109.8
96107.6
96105.4
96103.3
96101.2
96099.1
96097.2
96095.2
96093.3
96091.5
96089.7
96087.9
96086.2
96084.6
96082.9
96081.3
96079.8
96078.3
96076.8
96075.4
96074
96072.6
96071.3
96070
96068.7
96067.5
96066.3
96065.1
96064
96062.9
96061.8
96060.7
96059.7
96058.7
96057.7
96056.7
96055.8
96054.9
96054
96053.1
96052.3
96051.5
96050.7
96049.9
96049.1
96048.4
96047.7
96046.9
96046.3
96045.6
96044.9
96044.3
96043.7
96043.1
96042.5
96041.9
96041.3
96040.8
96040.3
96039.7
96039.2
96038.7
96038.3
96037.8
96037.3
96036.9
96036.5
96036
96035.6
96035.2
96034.8
96034.4
96034.1
96033.7
96033.3
96033
96032.7
96032.3
96032
96031.7
96031.4
96031.1
96030.8
96030.5
96030.3
96030
96029.7
96029.5
96029.2
96029
96028.7
96028.5
96028.3
96028.1
96027.9
96027.7
96027.5
96027.3
96027.1
96026.9
96026.7
96026.5
96026.3
96026.2
96026
96025.8
96025.7
96025.5
96025.4
96025.2
96025.1
96025
96024.8
96024.7
96024.6
96024.4
96024.3
96024.2
96024.1
96024
96023.9
96023.7
96023.6
96023.5
96023.4
96023.3
96023.3
96023.2
96023.1
96023
96022.9
96022.8
96022.7
96022.7
96022.6
96022.5
96022.4
96022.4
96022.3
96022.2
96022.2
96022.1
96022
96022
96021.9
96021.8
96021.8
96021.7
96021.7
96021.6
96021.6
96021.5
96021.5
96021.4
96021.4
96021.3
96021.3
96021.2
96021.2
96021.2
96021.1
96021.1
96021
96021
96021
96020.9
96020.9
96020.9
96020.8
96020.8
96020.8
96020.7
96020.7
96020.7
96020.7
96020.6
96020.6
96020.6
96020.6
96020.5
96020.5
96020.5
96020.5
96020.4
96020.4
96020.4
96020.4
96020.4
96020.3
96020.3
96020.3
96020.3
96020.3
96020.2
96020.2
96020.2
96020.2
96020.2
96020.2
96020.1
96020.1
96020.1
96020.1
96020.1
96020.1
96020.1
96020.1
96020
96020
96020
96020
96020
96020
96020
96020
96020
96019.9
96019.9
96019.9
96019.9
96019.9
96019.9
96019.9
96019.9
96019.9
96019.9
96019.9
96019.9
96019.8
96019.8
96019.8
96019.8
96019.8
96019.8
96019.8
96019.8
96019.8
96019.8
96019.8
96019.8
96019.8
96019.8
96019.8
96019.8
96019.8
96019.8
96019.7
96019.7
96019.7
96019.7
96019.7
96019.7
96019.7
96019.7
96019.7
96019.7
96019.7
96019.7
96019.7
96019.7
96019.7
96019.7
96019.7
96019.7
96019.7
96019.7
96019.7
96019.7
96019.7
96019.7
96019.7
96019.7
96019.7
96019.7
96019.7
96019.7
96019.7
96019.7
96019.6
96019.6
96019.6
96019.6
96019.6
96019.6
96019.6
96019.6
96019.6
96019.6
96019.6
96019.6
96019.6
96019.6
96019.6
96019.6
96019.6
96019.6
96019.6
96019.6
96019.6
96019.6
96019.6
96019.6
96019.6
96019.6
96019.6
96019.6
96019.6
96019.6
96019.6
96019.6
96019.6
96019.6
96019.6
96019.6
96019.6
96019.6
96019.6
96019.6
96019.6
96019.6
96019.6
96019.6
96019.6
96019.6
96019.6
96019.6
96019.6
96019.6
96019.6
96019.6
96019.6
96019.6
96019.6
96019.6
96019.6
96019.6
96019.6
96019.6
96019.6
96019.6
96019.6
96019.6
96019.6
96019.6
96019.6
96019.6
96019.6
96019.6
96019.6
96019.6
96019.6
96019.6
96019.6
96019.6
96019.6
96019.6
96019.6
96019.6
96019.6
96019.6
96019.6
96019.6
96019.6
96019.6
96019.6
96019.6
96019.6
96019.6
96019.6
96019.6
96019.6
96019.6
96019.6
96019.6
96019.6
96019.6
96019.6
96019.6
96019.6
96019.6
96019.6
96019.6
96019.6
96019.6
96019.6
96019.6
96019.6
96019.6
96019.6
96019.6
96019.6
96019.6
96019.6
96019.6
96019.6
96019.6
96019.6
96019.6
96019.6
96019.6
96019.6
96019.6
96019.6
96019.6
96555.7
96555.4
96555
96554.3
96553.3
96552.2
96550.8
96549.1
96547.3
96545.2
96542.9
96540.4
96537.7
96534.8
96531.7
96528.3
96524.8
96521.1
96517.2
96513.1
96508.9
96504.5
96499.9
96495.2
96490.3
96485.3
96480.1
96474.9
96469.5
96464
96458.3
96452.6
96446.8
96440.9
96435
96428.9
96422.8
96416.7
96410.4
96404.2
96397.9
96391.6
96385.2
96378.9
96372.5
96366.1
96359.7
96353.4
96347
96340.7
96334.3
96328
96321.8
96315.6
96309.4
96303.2
96297.1
96291.1
96285.1
96279.2
96273.3
96267.5
96261.8
96256.1
96250.5
96245
96239.6
96234.2
96228.9
96223.7
96218.6
96213.6
96208.6
96203.7
96198.9
96194.2
96189.6
96185.1
96180.6
96176.2
96172
96167.7
96163.6
96159.6
96155.6
96151.8
96148
96144.2
96140.6
96137.1
96133.6
96130.2
96126.8
96123.6
96120.4
96117.3
96114.2
96111.3
96108.4
96105.5
96102.7
96100
96097.4
96094.8
96092.3
96089.8
96087.4
96085.1
96082.8
96080.6
96078.4
96076.2
96074.2
96072.1
96070.2
96068.2
96066.3
96064.5
96062.7
96061
96059.3
96057.6
96056
96054.4
96052.9
96051.4
96049.9
96048.5
96047.1
96045.7
96044.4
96043.1
96041.8
96040.6
96039.4
96038.2
96037.1
96036
96034.9
96033.8
96032.8
96031.8
96030.8
96029.9
96029
96028
96027.2
96026.3
96025.5
96024.6
96023.8
96023.1
96022.3
96021.6
96020.8
96020.1
96019.5
96018.8
96018.1
96017.5
96016.9
96016.3
96015.7
96015.1
96014.6
96014
96013.5
96013
96012.5
96012
96011.5
96011
96010.6
96010.1
96009.7
96009.3
96008.9
96008.5
96008.1
96007.7
96007.3
96007
96006.6
96006.3
96005.9
96005.6
96005.3
96005
96004.7
96004.4
96004.1
96003.8
96003.5
96003.3
96003
96002.7
96002.5
96002.3
96002
96001.8
96001.6
96001.4
96001.1
96000.9
96000.7
96000.5
96000.3
96000.2
96000
95999.8
95999.6
95999.5
95999.3
95999.1
95999
95998.8
95998.7
95998.5
95998.4
95998.2
95998.1
95998
95997.9
95997.7
95997.6
95997.5
95997.4
95997.3
95997.2
95997
95996.9
95996.8
95996.7
95996.6
95996.6
95996.5
95996.4
95996.3
95996.2
95996.1
95996
95996
95995.9
95995.8
95995.7
95995.7
95995.6
95995.5
95995.5
95995.4
95995.3
95995.3
95995.2
95995.1
95995.1
95995
95995
95994.9
95994.9
95994.8
95994.8
95994.7
95994.7
95994.6
95994.6
95994.6
95994.5
95994.5
95994.4
95994.4
95994.4
95994.3
95994.3
95994.2
95994.2
95994.2
95994.1
95994.1
95994.1
95994.1
95994
95994
95994
95993.9
95993.9
95993.9
95993.9
95993.8
95993.8
95993.8
95993.8
95993.7
95993.7
95993.7
95993.7
95993.7
95993.6
95993.6
95993.6
95993.6
95993.6
95993.6
95993.5
95993.5
95993.5
95993.5
95993.5
95993.5
95993.4
95993.4
95993.4
95993.4
95993.4
95993.4
95993.4
95993.4
95993.3
95993.3
95993.3
95993.3
95993.3
95993.3
95993.3
95993.3
95993.3
95993.3
95993.2
95993.2
95993.2
95993.2
95993.2
95993.2
95993.2
95993.2
95993.2
95993.2
95993.2
95993.2
95993.1
95993.1
95993.1
95993.1
95993.1
95993.1
95993.1
95993.1
95993.1
95993.1
95993.1
95993.1
95993.1
95993.1
95993.1
95993.1
95993.1
95993.1
95993.1
95993
95993
95993
95993
95993
95993
95993
95993
95993
95993
95993
95993
95993
95993
95993
95993
95993
95993
95993
95993
95993
95993
95993
95993
95993
95993
95993
95993
95993
95993
95993
95993
95993
95993
95993
95993
95993
95992.9
95992.9
95992.9
95992.9
95992.9
95992.9
95992.9
95992.9
95992.9
95992.9
95992.9
95992.9
95992.9
95992.9
95992.9
95992.9
95992.9
95992.9
95992.9
95992.9
95992.9
95992.9
95992.9
95992.9
95992.9
95992.9
95992.9
95992.9
95992.9
95992.9
95992.9
95992.9
95992.9
95992.9
95992.9
95992.9
95992.9
95992.9
95992.9
95992.9
95992.9
95992.9
95992.9
95992.9
95992.9
95992.9
95992.9
95992.9
95992.9
95992.9
95992.9
95992.9
95992.9
95992.9
95992.9
95992.9
95992.9
95992.9
95992.9
95992.9
95992.9
95992.9
95992.9
95992.9
95992.9
95992.9
95992.9
95992.9
95992.9
95992.9
95992.9
95992.9
95992.9
95992.9
95992.9
95992.9
95992.9
95992.9
95992.9
95992.9
95992.9
95992.9
95992.9
95992.9
95992.9
95992.9
95992.9
95992.9
95992.9
95992.9
95992.9
95992.9
95992.9
95992.9
95992.9
95992.9
95992.9
95992.9
95992.9
95992.9
95992.9
95992.9
95992.9
95992.9
95992.9
95992.9
95992.9
95992.9
95992.9
95992.9
95992.9
95992.9
95992.9
95992.9
95992.9
95992.9
95992.9
95992.9
96526.2
96526
96525.5
96524.8
96523.9
96522.7
96521.3
96519.6
96517.8
96515.7
96513.3
96510.8
96508.1
96505.1
96501.9
96498.6
96495
96491.3
96487.3
96483.2
96478.9
96474.5
96469.9
96465.1
96460.2
96455.1
96449.9
96444.6
96439.2
96433.6
96427.9
96422.2
96416.3
96410.4
96404.4
96398.3
96392.1
96385.9
96379.7
96373.4
96367
96360.7
96354.3
96347.9
96341.5
96335
96328.6
96322.2
96315.8
96309.4
96303.1
96296.7
96290.5
96284.2
96278
96271.8
96265.7
96259.6
96253.6
96247.7
96241.8
96236
96230.2
96224.6
96219
96213.4
96208
96202.6
96197.3
96192.1
96187
96181.9
96177
96172.1
96167.3
96162.6
96157.9
96153.4
96149
96144.6
96140.3
96136.1
96132
96127.9
96124
96120.1
96116.3
96112.6
96109
96105.4
96102
96098.6
96095.2
96092
96088.8
96085.7
96082.7
96079.7
96076.8
96074
96071.2
96068.5
96065.9
96063.3
96060.8
96058.4
96056
96053.6
96051.3
96049.1
96046.9
96044.8
96042.8
96040.7
96038.8
96036.8
96035
96033.1
96031.4
96029.6
96027.9
96026.3
96024.7
96023.1
96021.5
96020
96018.6
96017.2
96015.8
96014.4
96013.1
96011.8
96010.6
96009.3
96008.1
96007
96005.8
96004.7
96003.7
96002.6
96001.6