/*--------------------------------*- C++ -*----------------------------------*\
| =========                 |                                                 |
| \\      /  F ield         | OpenFOAM: The Open Source CFD Toolbox           |
|  \\    /   O peration     | Version:  v2012                                 |
|   \\  /    A nd           | Website:  www.openfoam.com                      |
|    \\/     M anipulation  |                                                 |
\*---------------------------------------------------------------------------*/
FoamFile
{
    version     2.0;
    format      ascii;
    class       volScalarField;
    location    "0";
    object      ph_rgh;
}
// * * * * * * * * * * * * * * * * * * * * * * * * * * * * * * * * * * * * * //

dimensions      [1 -1 -2 0 0 0 0];


internalField   nonuniform List<scalar> 
1024
(
1780.51
1772.91
1758.43
1738.37
1714.44
1688.49
1662.26
1637.13
1614.06
1593.59
1575.87
1560.82
1548.21
1537.75
1529.11
1522.01
1516.2
1511.44
1507.56
1504.38
1501.79
1499.68
1497.95
1496.55
1495.4
1494.46
1493.69
1493.07
1492.55
1492.14
1491.8
1491.52
1491.29
1491.11
1490.95
1490.83
1490.73
1490.65
1490.58
1490.52
1490.48
1490.44
1490.41
1490.39
1490.37
1490.35
1490.34
1490.32
1490.32
1490.31
1490.3
1490.3
1490.29
1490.29
1490.29
1490.29
1490.28
1490.28
1490.28
1490.28
1490.28
1490.28
1490.28
1490.28
1641.38
1633.07
1617.25
1595.43
1569.61
1541.9
1514.27
1488.18
1464.6
1443.98
1426.38
1411.6
1399.32
1389.18
1380.86
1374.04
1368.47
1363.92
1360.2
1357.17
1354.69
1352.67
1351.02
1349.68
1348.58
1347.68
1346.95
1346.35
1345.86
1345.46
1345.14
1344.87
1344.66
1344.48
1344.33
1344.21
1344.12
1344.04
1343.97
1343.92
1343.88
1343.84
1343.81
1343.79
1343.77
1343.76
1343.74
1343.73
1343.72
1343.72
1343.71
1343.71
1343.7
1343.7
1343.7
1343.7
1343.69
1343.69
1343.69
1343.69
1343.69
1343.69
1343.69
1343.69
1370.22
1360.29
1341.48
1315.75
1285.7
1254.11
1223.47
1195.37
1170.8
1150
1132.76
1118.61
1107.06
1097.65
1090
1083.76
1078.69
1074.55
1071.18
1068.43
1066.19
1064.36
1062.87
1061.65
1060.66
1059.84
1059.18
1058.64
1058.2
1057.83
1057.54
1057.3
1057.1
1056.94
1056.81
1056.7
1056.61
1056.54
1056.48
1056.44
1056.4
1056.36
1056.34
1056.32
1056.3
1056.29
1056.27
1056.26
1056.26
1056.25
1056.24
1056.24
1056.24
1056.23
1056.23
1056.23
1056.23
1056.23
1056.23
1056.23
1056.23
1056.23
1056.22
1056.22
1035.01
1015.24
978.573
930.602
878.752
831.251
794.392
763.124
737.246
716.522
700.15
687.218
676.949
668.744
662.151
656.829
652.518
649.018
646.17
643.851
641.96
640.417
639.158
638.13
637.291
636.605
636.045
635.588
635.214
634.909
634.659
634.456
634.289
634.153
634.042
633.951
633.877
633.817
633.767
633.727
633.694
633.667
633.644
633.626
633.612
633.6
633.59
633.582
633.575
633.57
633.566
633.562
633.559
633.557
633.555
633.553
633.552
633.551
633.55
633.55
633.549
633.549
633.549
633.548
728.114
693.225
627.817
540.162
441.053
342.917
258.052
198.083
167.833
148.036
133.568
122.758
114.495
108.058
102.967
98.8995
95.6239
92.9728
90.8196
89.0669
87.638
86.4719
85.5197
84.7419
84.1064
83.587
83.1626
82.8158
82.5323
82.3007
82.1114
81.9567
81.8302
81.7269
81.6425
81.5735
81.5172
81.4711
81.4335
81.4027
81.3776
81.3571
81.3403
81.3266
81.3154
81.3063
81.2988
81.2927
81.2877
81.2837
81.2803
81.2776
81.2754
81.2736
81.2722
81.271
81.2701
81.2693
81.2687
81.2682
81.2679
81.2676
81.2675
81.2674
408.788
356.042
256.752
122.113
-32.5977
-190.624
-335.07
-450.53
-524.627
-551.268
-561.948
-569.32
-574.674
-578.714
-581.851
-584.332
-586.32
-587.926
-589.231
-590.295
-591.164
-591.874
-592.455
-592.931
-593.32
-593.639
-593.899
-594.113
-594.287
-594.43
-594.546
-594.642
-594.72
-594.784
-594.836
-594.878
-594.913
-594.942
-594.965
-594.984
-594.999
-595.012
-595.022
-595.031
-595.038
-595.043
-595.048
-595.052
-595.055
-595.057
-595.059
-595.061
-595.063
-595.064
-595.065
-595.065
-595.066
-595.066
-595.067
-595.067
-595.067
-595.067
-595.067
-595.067
-56.3707
-125.055
-254.464
-430.465
-633.96
-844.093
-1039.87
-1202.88
-1317.77
-1373.89
-1380.85
-1383.19
-1384.69
-1385.74
-1386.52
-1387.13
-1387.62
-1388.03
-1388.36
-1388.64
-1388.87
-1389.06
-1389.22
-1389.35
-1389.46
-1389.55
-1389.62
-1389.68
-1389.73
-1389.77
-1389.81
-1389.84
-1389.86
-1389.88
-1389.89
-1389.91
-1389.92
-1389.92
-1389.93
-1389.94
-1389.94
-1389.94
-1389.95
-1389.95
-1389.95
-1389.95
-1389.96
-1389.96
-1389.96
-1389.96
-1389.96
-1389.96
-1389.96
-1389.96
-1389.96
-1389.96
-1389.96
-1389.96
-1389.96
-1389.96
-1389.96
-1389.96
-1389.96
-1389.96
-841.082
-917.514
-1061.57
-1257.19
-1483.5
-1717.21
-1935.23
-2117.23
-2246.75
-2312.2
-2316.34
-2312.4
-2309.37
-2307.02
-2305.18
-2303.74
-2302.59
-2301.69
-2300.97
-2300.39
-2299.93
-2299.56
-2299.26
-2299.02
-2298.82
-2298.67
-2298.54
-2298.43
-2298.35
-2298.28
-2298.22
-2298.18
-2298.14
-2298.11
-2298.09
-2298.06
-2298.05
-2298.03
-2298.02
-2298.01
-2298.01
-2298
-2298
-2297.99
-2297.99
-2297.99
-2297.98
-2297.98
-2297.98
-2297.98
-2297.98
-2297.98
-2297.98
-2297.98
-2297.98
-2297.98
-2297.98
-2297.98
-2297.98
-2297.98
-2297.98
-2297.98
-2297.98
-2297.98
-2056.71
-2128.45
-2263.27
-2445.91
-2655.65
-2870.02
-3066.47
-3225.4
-3330.58
-3371.07
-3360.18
-3349.87
-3342.23
-3336.42
-3331.9
-3328.35
-3325.54
-3323.29
-3321.48
-3320.02
-3318.85
-3317.89
-3317.12
-3316.49
-3315.98
-3315.57
-3315.23
-3314.95
-3314.73
-3314.54
-3314.39
-3314.27
-3314.17
-3314.09
-3314.02
-3313.97
-3313.93
-3313.89
-3313.86
-3313.84
-3313.82
-3313.8
-3313.79
-3313.78
-3313.77
-3313.76
-3313.75
-3313.75
-3313.75
-3313.74
-3313.74
-3313.74
-3313.74
-3313.73
-3313.73
-3313.73
-3313.73
-3313.73
-3313.73
-3313.73
-3313.73
-3313.73
-3313.73
-3313.73
-3666.93
-3721.8
-3824.39
-3961.88
-4116.67
-4269.66
-4401.8
-4495.97
-4538.73
-4525.25
-4503.97
-4488.46
-4476.79
-4467.81
-4460.78
-4455.23
-4450.79
-4447.24
-4444.37
-4442.05
-4440.16
-4438.64
-4437.39
-4436.38
-4435.56
-4434.88
-4434.34
-4433.89
-4433.52
-4433.23
-4432.98
-4432.78
-4432.62
-4432.49
-4432.38
-4432.29
-4432.22
-4432.16
-4432.11
-4432.07
-4432.04
-4432.02
-4431.99
-4431.98
-4431.96
-4431.95
-4431.94
-4431.93
-4431.93
-4431.92
-4431.92
-4431.91
-4431.91
-4431.91
-4431.91
-4431.9
-4431.9
-4431.9
-4431.9
-4431.9
-4431.9
-4431.9
-4431.9
-4431.9
-5489.12
-5519.89
-5576.39
-5648.92
-5725.06
-5790.33
-5831.03
-5834.69
-5799
-5765.72
-5740.68
-5721.58
-5706.8
-5695.2
-5686.01
-5678.67
-5672.77
-5668.01
-5664.15
-5661.02
-5658.48
-5656.4
-5654.72
-5653.34
-5652.22
-5651.3
-5650.55
-5649.94
-5649.44
-5649.04
-5648.7
-5648.43
-5648.21
-5648.03
-5647.88
-5647.76
-5647.66
-5647.58
-5647.51
-5647.46
-5647.42
-5647.38
-5647.35
-5647.33
-5647.31
-5647.29
-5647.28
-5647.27
-5647.26
-5647.25
-5647.25
-5647.24
-5647.24
-5647.23
-5647.23
-5647.23
-5647.23
-5647.23
-5647.23
-5647.23
-5647.22
-5647.22
-5647.22
-5647.22
-7280.15
-7285.6
-7293.65
-7298.39
-7291.89
-7265.44
-7215.13
-7165.95
-7124.71
-7091.28
-7064.59
-7043.36
-7026.42
-7012.85
-7001.93
-6993.1
-6985.95
-6980.15
-6975.42
-6971.58
-6968.44
-6965.88
-6963.8
-6962.09
-6960.7
-6959.56
-6958.63
-6957.88
-6957.26
-6956.75
-6956.34
-6956
-6955.72
-6955.5
-6955.31
-6955.16
-6955.04
-6954.94
-6954.86
-6954.79
-6954.74
-6954.69
-6954.65
-6954.62
-6954.6
-6954.58
-6954.56
-6954.55
-6954.54
-6954.53
-6954.52
-6954.52
-6954.51
-6954.51
-6954.51
-6954.5
-6954.5
-6954.5
-6954.5
-6954.5
-6954.5
-6954.5
-6954.49
-6954.49
-8836.46
-8821.39
-8792.8
-8753.64
-8707.76
-8659.34
-8612.14
-8568.63
-8530.39
-8497.86
-8470.77
-8448.46
-8430.18
-8415.24
-8403.04
-8393.07
-8384.93
-8378.28
-8372.85
-8368.41
-8364.79
-8361.82
-8359.4
-8357.42
-8355.8
-8354.48
-8353.39
-8352.51
-8351.79
-8351.2
-8350.72
-8350.32
-8350
-8349.74
-8349.52
-8349.35
-8349.2
-8349.09
-8348.99
-8348.91
-8348.85
-8348.8
-8348.75
-8348.72
-8348.69
-8348.67
-8348.65
-8348.63
-8348.62
-8348.61
-8348.6
-8348.59
-8348.59
-8348.58
-8348.58
-8348.58
-8348.57
-8348.57
-8348.57
-8348.57
-8348.57
-8348.57
-8348.57
-8348.57
-10275.7
-10263.5
-10240.2
-10207.9
-10169.7
-10128.5
-10087.3
-10048.2
-10012.6
-9981.39
-9954.54
-9931.83
-9912.84
-9897.06
-9884.01
-9873.26
-9864.41
-9857.15
-9851.19
-9846.31
-9842.31
-9839.04
-9836.36
-9834.17
-9832.38
-9830.91
-9829.71
-9828.73
-9827.93
-9827.28
-9826.74
-9826.31
-9825.95
-9825.66
-9825.42
-9825.22
-9825.06
-9824.93
-9824.83
-9824.74
-9824.67
-9824.61
-9824.56
-9824.53
-9824.49
-9824.47
-9824.45
-9824.43
-9824.42
-9824.4
-9824.39
-9824.39
-9824.38
-9824.38
-9824.37
-9824.37
-9824.37
-9824.36
-9824.36
-9824.36
-9824.36
-9824.36
-9824.36
-9824.36
-11802.1
-11791.6
-11771.7
-11743.9
-11710.6
-11674.1
-11637
-11601
-11567.6
-11537.6
-11511.3
-11488.6
-11469.3
-11453.2
-11439.7
-11428.5
-11419.2
-11411.6
-11405.3
-11400.1
-11395.9
-11392.4
-11389.6
-11387.3
-11385.4
-11383.8
-11382.5
-11381.5
-11380.6
-11379.9
-11379.4
-11378.9
-11378.5
-11378.2
-11378
-11377.8
-11377.6
-11377.5
-11377.3
-11377.2
-11377.2
-11377.1
-11377.1
-11377
-11377
-11377
-11376.9
-11376.9
-11376.9
-11376.9
-11376.9
-11376.9
-11376.9
-11376.9
-11376.9
-11376.9
-11376.9
-11376.8
-11376.8
-11376.8
-11376.8
-11376.8
-11376.8
-11376.8
-13409.5
-13400
-13381.8
-13356.4
-13325.7
-13291.9
-13257.1
-13223.1
-13191.1
-13162
-13136.2
-13113.8
-13094.7
-13078.5
-13064.9
-13053.6
-13044.2
-13036.4
-13030.1
-13024.8
-13020.5
-13017
-13014.1
-13011.7
-13009.8
-13008.2
-13006.9
-13005.8
-13004.9
-13004.2
-13003.6
-13003.2
-13002.8
-13002.5
-13002.2
-13002
-13001.8
-13001.7
-13001.6
-13001.5
-13001.4
-13001.3
-13001.3
-13001.2
-13001.2
-13001.2
-13001.2
-13001.1
-13001.1
-13001.1
-13001.1
-13001.1
-13001.1
-13001.1
-13001.1
-13001.1
-13001.1
-13001.1
-13001.1
-13001.1
-13001.1
-13001.1
-13001.1
-13001.1
)
;

boundaryField
{
    top
    {
        type            fixedFluxPressure;
        gradient        nonuniform List<scalar> 
64
(
-4.29394
-4.29441
-4.29532
-4.29658
-4.2981
-4.29977
-4.3015
-4.30319
-4.30477
-4.30621
-4.30749
-4.3086
-4.30955
-4.31036
-4.31103
-4.31159
-4.31206
-4.31244
-4.31276
-4.31302
-4.31323
-4.31341
-4.31355
-4.31367
-4.31376
-4.31384
-4.31391
-4.31396
-4.314
-4.31404
-4.31407
-4.31409
-4.31411
-4.31413
-4.31414
-4.31415
-4.31416
-4.31416
-4.31417
-4.31418
-4.31418
-4.31418
-4.31418
-4.31419
-4.31419
-4.31419
-4.31419
-4.31419
-4.31419
-4.31419
-4.31419
-4.31419
-4.31419
-4.31419
-4.31419
-4.3142
-4.3142
-4.3142
-4.3142
-4.3142
-4.3142
-4.3142
-4.3142
-4.3142
)
;
        value           nonuniform List<scalar> 
64
(
-14268.3
-14258.8
-14240.8
-14215.7
-14185.3
-14151.9
-14117.4
-14083.7
-14052.1
-14023.3
-13997.7
-13975.5
-13956.6
-13940.5
-13927.1
-13915.9
-13906.6
-13898.9
-13892.6
-13887.4
-13883.1
-13879.6
-13876.8
-13874.4
-13872.5
-13870.9
-13869.7
-13868.6
-13867.7
-13867
-13866.5
-13866
-13865.6
-13865.3
-13865
-13864.8
-13864.7
-13864.5
-13864.4
-13864.3
-13864.2
-13864.2
-13864.1
-13864.1
-13864
-13864
-13864
-13864
-13864
-13863.9
-13863.9
-13863.9
-13863.9
-13863.9
-13863.9
-13863.9
-13863.9
-13863.9
-13863.9
-13863.9
-13863.9
-13863.9
-13863.9
-13863.9
)
;
    }
    bottom
    {
        type            fixedFluxPressure;
        gradient        uniform -0;
        value           nonuniform List<scalar> 
64
(
1780.51
1772.91
1758.43
1738.37
1714.44
1688.49
1662.26
1637.13
1614.06
1593.59
1575.87
1560.82
1548.21
1537.75
1529.11
1522.01
1516.2
1511.44
1507.56
1504.38
1501.79
1499.68
1497.95
1496.55
1495.4
1494.46
1493.69
1493.07
1492.55
1492.14
1491.8
1491.52
1491.29
1491.11
1490.95
1490.83
1490.73
1490.65
1490.58
1490.52
1490.48
1490.44
1490.41
1490.39
1490.37
1490.35
1490.34
1490.32
1490.32
1490.31
1490.3
1490.3
1490.29
1490.29
1490.29
1490.29
1490.28
1490.28
1490.28
1490.28
1490.28
1490.28
1490.28
1490.28
)
;
    }
    left
    {
        type            fixedFluxPressure;
        gradient        uniform 0;
        value           nonuniform List<scalar> 
16
(
1780.51
1641.38
1370.22
1035.01
728.114
408.788
-56.3707
-841.082
-2056.71
-3666.93
-5489.12
-7280.15
-8836.46
-10275.7
-11802.1
-13409.5
)
;
    }
    right
    {
        type            fixedFluxPressure;
        gradient        uniform 0;
        value           nonuniform List<scalar> 
16
(
1490.28
1343.69
1056.22
633.548
81.2674
-595.067
-1389.96
-2297.98
-3313.73
-4431.9
-5647.22
-6954.49
-8348.57
-9824.36
-11376.8
-13001.1
)
;
    }
    frontandback
    {
        type            empty;
    }
}


// ************************************************************************* //
