/*--------------------------------*- C++ -*----------------------------------*\
| =========                 |                                                 |
| \\      /  F ield         | OpenFOAM: The Open Source CFD Toolbox           |
|  \\    /   O peration     | Version:  v2012                                 |
|   \\  /    A nd           | Website:  www.openfoam.com                      |
|    \\/     M anipulation  |                                                 |
\*---------------------------------------------------------------------------*/
FoamFile
{
    version     2.0;
    format      ascii;
    class       volScalarField;
    location    "0";
    object      ph_rgh;
}
// * * * * * * * * * * * * * * * * * * * * * * * * * * * * * * * * * * * * * //

dimensions      [1 -1 -2 0 0 0 0];


internalField   nonuniform List<scalar> 
4096
(
1579.97
1578.08
1574.36
1568.87
1561.77
1553.19
1543.35
1532.43
1520.67
1508.29
1495.51
1482.54
1469.58
1456.79
1444.32
1432.3
1420.82
1409.94
1399.71
1390.16
1381.29
1373.08
1365.53
1358.61
1352.28
1346.5
1341.24
1336.46
1332.12
1328.19
1324.62
1321.4
1318.48
1315.84
1313.46
1311.3
1309.35
1307.59
1306
1304.57
1303.27
1302.1
1301.04
1300.09
1299.22
1298.44
1297.74
1297.1
1296.53
1296.01
1295.54
1295.12
1294.74
1294.39
1294.08
1293.8
1293.54
1293.31
1293.1
1292.92
1292.75
1292.59
1292.45
1292.33
1292.22
1292.11
1292.02
1291.94
1291.86
1291.79
1291.73
1291.68
1291.63
1291.58
1291.54
1291.5
1291.47
1291.44
1291.41
1291.39
1291.36
1291.34
1291.33
1291.31
1291.29
1291.28
1291.27
1291.26
1291.25
1291.24
1291.23
1291.22
1291.22
1291.21
1291.2
1291.2
1291.2
1291.19
1291.19
1291.18
1291.18
1291.18
1291.18
1291.17
1291.17
1291.17
1291.17
1291.17
1291.17
1291.17
1291.16
1291.16
1291.16
1291.16
1291.16
1291.16
1291.16
1291.16
1291.16
1291.16
1291.16
1291.16
1291.16
1291.16
1291.16
1291.16
1291.16
1291.16
1544.86
1542.93
1539.11
1533.5
1526.23
1517.47
1507.41
1496.28
1484.29
1471.69
1458.7
1445.54
1432.4
1419.47
1406.88
1394.77
1383.22
1372.31
1362.06
1352.5
1343.64
1335.46
1327.94
1321.05
1314.76
1309.03
1303.81
1299.07
1294.77
1290.87
1287.34
1284.15
1281.26
1278.65
1276.29
1274.15
1272.23
1270.49
1268.91
1267.49
1266.21
1265.05
1264.01
1263.06
1262.21
1261.44
1260.74
1260.11
1259.54
1259.03
1258.57
1258.15
1257.77
1257.43
1257.12
1256.84
1256.59
1256.36
1256.16
1255.97
1255.8
1255.65
1255.51
1255.39
1255.28
1255.18
1255.08
1255
1254.93
1254.86
1254.8
1254.74
1254.69
1254.65
1254.61
1254.57
1254.54
1254.51
1254.48
1254.46
1254.43
1254.41
1254.4
1254.38
1254.37
1254.35
1254.34
1254.33
1254.32
1254.31
1254.3
1254.3
1254.29
1254.28
1254.28
1254.27
1254.27
1254.26
1254.26
1254.26
1254.25
1254.25
1254.25
1254.25
1254.25
1254.24
1254.24
1254.24
1254.24
1254.24
1254.24
1254.24
1254.24
1254.24
1254.23
1254.23
1254.23
1254.23
1254.23
1254.23
1254.23
1254.23
1254.23
1254.23
1254.23
1254.23
1254.23
1254.23
1475.48
1473.46
1469.45
1463.58
1455.97
1446.81
1436.32
1424.73
1412.27
1399.21
1385.79
1372.23
1358.74
1345.51
1332.68
1320.39
1308.71
1297.71
1287.42
1277.86
1269.03
1260.9
1253.45
1246.64
1240.42
1234.77
1229.64
1224.98
1220.76
1216.94
1213.48
1210.35
1207.52
1204.97
1202.66
1200.57
1198.69
1196.99
1195.45
1194.06
1192.81
1191.67
1190.65
1189.73
1188.89
1188.14
1187.46
1186.84
1186.29
1185.79
1185.33
1184.92
1184.55
1184.22
1183.92
1183.65
1183.4
1183.18
1182.98
1182.79
1182.63
1182.48
1182.35
1182.23
1182.12
1182.02
1181.93
1181.85
1181.77
1181.71
1181.65
1181.6
1181.55
1181.5
1181.46
1181.43
1181.39
1181.37
1181.34
1181.31
1181.29
1181.27
1181.26
1181.24
1181.23
1181.21
1181.2
1181.19
1181.18
1181.17
1181.16
1181.16
1181.15
1181.14
1181.14
1181.13
1181.13
1181.13
1181.12
1181.12
1181.12
1181.11
1181.11
1181.11
1181.11
1181.11
1181.11
1181.1
1181.1
1181.1
1181.1
1181.1
1181.1
1181.1
1181.1
1181.1
1181.1
1181.1
1181.1
1181.09
1181.09
1181.09
1181.09
1181.09
1181.09
1181.09
1181.09
1181.09
1372.72
1370.54
1366.25
1359.95
1351.81
1342.03
1330.85
1318.53
1305.34
1291.56
1277.45
1263.27
1249.24
1235.55
1222.36
1209.78
1197.91
1186.79
1176.45
1166.9
1158.12
1150.07
1142.73
1136.03
1129.95
1124.43
1119.43
1114.9
1110.8
1107.1
1103.75
1100.72
1097.98
1095.51
1093.28
1091.26
1089.44
1087.8
1086.32
1084.98
1083.77
1082.67
1081.69
1080.79
1079.99
1079.26
1078.6
1078.01
1077.47
1076.99
1076.55
1076.16
1075.8
1075.48
1075.19
1074.92
1074.69
1074.47
1074.28
1074.1
1073.94
1073.8
1073.67
1073.55
1073.45
1073.35
1073.27
1073.19
1073.12
1073.05
1073
1072.94
1072.9
1072.85
1072.82
1072.78
1072.75
1072.72
1072.7
1072.67
1072.65
1072.63
1072.62
1072.6
1072.59
1072.57
1072.56
1072.55
1072.54
1072.53
1072.53
1072.52
1072.51
1072.51
1072.5
1072.5
1072.49
1072.49
1072.49
1072.48
1072.48
1072.48
1072.48
1072.48
1072.47
1072.47
1072.47
1072.47
1072.47
1072.47
1072.47
1072.46
1072.46
1072.46
1072.46
1072.46
1072.46
1072.46
1072.46
1072.46
1072.46
1072.46
1072.46
1072.46
1072.46
1072.46
1072.46
1072.46
1237.52
1235.13
1230.42
1223.52
1214.61
1203.95
1191.8
1178.45
1164.22
1149.42
1134.36
1119.31
1104.52
1090.2
1076.5
1063.55
1051.42
1040.16
1029.78
1020.25
1011.55
1003.64
996.447
989.931
984.033
978.7
973.88
969.527
965.597
962.048
958.844
955.953
953.342
950.986
948.859
946.939
945.205
943.64
942.227
940.951
939.799
938.759
937.819
936.971
936.204
935.512
934.887
934.322
933.812
933.351
932.934
932.558
932.218
931.911
931.634
931.383
931.157
930.952
930.767
930.6
930.449
930.313
930.19
930.079
929.978
929.887
929.805
929.731
929.664
929.603
929.548
929.499
929.454
929.413
929.377
929.344
929.314
929.287
929.263
929.241
929.221
929.203
929.187
929.172
929.159
929.147
929.136
929.126
929.117
929.109
929.102
929.096
929.09
929.084
929.079
929.075
929.071
929.068
929.064
929.062
929.059
929.057
929.054
929.053
929.051
929.049
929.048
929.047
929.045
929.044
929.043
929.043
929.042
929.041
929.041
929.04
929.04
929.039
929.039
929.038
929.038
929.038
929.038
929.038
929.037
929.037
929.037
929.037
1074.24
1071.2
1065.31
1056.8
1046.07
1033.6
1019.96
1005.24
989.612
973.448
957.116
940.929
925.147
910.003
895.665
882.251
869.826
858.412
847.995
838.534
829.972
822.242
815.273
808.997
803.347
798.26
793.68
789.557
785.842
782.496
779.48
776.761
774.309
772.097
770.102
768.302
766.678
765.212
763.888
762.693
761.614
760.64
759.76
758.965
758.248
757.599
757.014
756.485
756.007
755.575
755.185
754.833
754.515
754.227
753.967
753.732
753.52
753.328
753.155
752.999
752.857
752.729
752.614
752.51
752.415
752.33
752.253
752.184
752.121
752.064
752.013
751.966
751.924
751.886
751.852
751.821
751.793
751.768
751.745
751.725
751.706
751.689
751.674
751.66
751.648
751.636
751.626
751.617
751.609
751.601
751.595
751.588
751.583
751.578
751.573
751.569
751.566
751.562
751.559
751.557
751.554
751.552
751.55
751.548
751.546
751.545
751.544
751.542
751.541
751.54
751.54
751.539
751.538
751.537
751.537
751.536
751.536
751.536
751.535
751.535
751.535
751.534
751.534
751.534
751.534
751.534
751.534
751.534
908.23
903.924
895.478
883.229
867.624
849.312
829.093
807.727
786.191
765.42
746.3
728.67
711.626
695.463
680.348
666.39
653.636
642.079
631.672
622.339
613.99
606.528
599.863
593.905
588.575
583.803
579.526
575.688
572.242
569.144
566.357
563.848
561.589
559.553
557.717
556.062
554.569
553.221
552.005
550.907
549.916
549.021
548.212
547.482
546.823
546.227
545.689
545.203
544.764
544.367
544.009
543.685
543.393
543.128
542.889
542.673
542.478
542.302
542.143
541.999
541.869
541.751
541.645
541.549
541.463
541.384
541.313
541.249
541.192
541.139
541.092
541.049
541.011
540.976
540.945
540.916
540.89
540.867
540.846
540.827
540.81
540.795
540.781
540.768
540.756
540.746
540.737
540.728
540.721
540.714
540.708
540.702
540.697
540.692
540.688
540.684
540.681
540.678
540.675
540.673
540.67
540.668
540.666
540.665
540.663
540.662
540.661
540.66
540.659
540.658
540.657
540.656
540.656
540.655
540.655
540.654
540.654
540.653
540.653
540.653
540.652
540.652
540.652
540.652
540.652
540.652
540.652
540.652
749.285
743.353
731.672
714.718
693.034
667.382
638.738
608.073
576.596
545.369
515.678
488.615
465.475
447
430.973
416.406
403.322
391.67
381.353
372.247
364.217
357.131
350.87
345.324
340.401
336.021
332.114
328.624
325.499
322.698
320.183
317.923
315.889
314.059
312.41
310.923
309.583
308.373
307.282
306.297
305.408
304.605
303.879
303.224
302.633
302.098
301.615
301.179
300.785
300.428
300.107
299.816
299.553
299.316
299.101
298.907
298.732
298.574
298.43
298.301
298.184
298.079
297.983
297.897
297.819
297.749
297.685
297.628
297.576
297.529
297.486
297.448
297.413
297.382
297.354
297.328
297.305
297.284
297.265
297.248
297.233
297.219
297.206
297.195
297.184
297.175
297.167
297.159
297.152
297.146
297.14
297.135
297.131
297.127
297.123
297.12
297.117
297.114
297.111
297.109
297.107
297.105
297.104
297.102
297.101
297.1
297.098
297.097
297.097
297.096
297.095
297.094
297.094
297.093
297.093
297.092
297.092
297.092
297.091
297.091
297.091
297.091
297.091
297.09
297.09
297.09
297.09
297.09
598.5
590.649
575.149
552.582
523.662
489.342
450.683
408.971
365.568
321.969
279.486
239.678
203.84
173.315
149.392
132.668
119.293
107.645
97.5512
88.8191
81.2558
74.6851
68.9534
63.9318
59.5131
55.6092
52.1476
49.0682
46.3215
43.8656
41.6656
39.6916
37.9179
36.3225
34.8861
33.5919
32.4252
31.3728
30.4231
29.566
28.792
28.0931
27.4619
26.8916
26.3765
25.911
25.4904
25.1104
24.767
24.4566
24.1762
23.9227
23.6937
23.4867
23.2996
23.1305
22.9777
22.8396
22.7148
22.6021
22.5001
22.408
22.3248
22.2495
22.1816
22.1201
22.0646
22.0144
21.969
21.9281
21.891
21.8575
21.8273
21.8
21.7752
21.7529
21.7327
21.7145
21.698
21.6831
21.6697
21.6575
21.6465
21.6366
21.6276
21.6195
21.6122
21.6055
21.5996
21.5941
21.5893
21.5848
21.5808
21.5772
21.574
21.571
21.5684
21.566
21.5638
21.5618
21.5601
21.5585
21.557
21.5557
21.5545
21.5535
21.5525
21.5517
21.5509
21.5502
21.5495
21.549
21.5485
21.548
21.5476
21.5473
21.5469
21.5466
21.5464
21.5462
21.546
21.5458
21.5457
21.5456
21.5455
21.5454
21.5454
21.5454
450.761
440.749
421.011
392.187
355.193
311.065
261.162
207.07
150.386
92.7736
35.9567
-18.2941
-68.3627
-112.725
-149.875
-178.66
-197.926
-209.579
-219.243
-227.389
-234.287
-240.167
-245.217
-249.585
-253.391
-256.726
-259.666
-262.267
-264.58
-266.641
-268.484
-270.135
-271.617
-272.949
-274.147
-275.227
-276.2
-277.078
-277.87
-278.585
-279.231
-279.814
-280.341
-280.818
-281.248
-281.637
-281.988
-282.306
-282.593
-282.853
-283.087
-283.299
-283.491
-283.664
-283.821
-283.962
-284.09
-284.206
-284.31
-284.405
-284.49
-284.567
-284.637
-284.7
-284.757
-284.809
-284.855
-284.897
-284.935
-284.97
-285.001
-285.029
-285.054
-285.077
-285.098
-285.116
-285.133
-285.149
-285.163
-285.175
-285.186
-285.196
-285.206
-285.214
-285.222
-285.228
-285.235
-285.24
-285.245
-285.25
-285.254
-285.257
-285.261
-285.264
-285.267
-285.269
-285.271
-285.273
-285.275
-285.277
-285.278
-285.28
-285.281
-285.282
-285.283
-285.284
-285.285
-285.285
-285.286
-285.286
-285.287
-285.287
-285.288
-285.288
-285.289
-285.289
-285.289
-285.289
-285.29
-285.29
-285.29
-285.29
-285.29
-285.29
-285.29
-285.29
-285.291
-285.291
294.535
282.272
258.059
222.595
177.027
122.559
60.8814
-6.29749
-76.9703
-149.294
-221.155
-290.619
-355.717
-414.661
-465.838
-507.729
-539.115
-558.929
-568.554
-575.817
-581.79
-586.762
-590.952
-594.524
-597.598
-600.269
-602.607
-604.665
-606.488
-608.108
-609.553
-610.846
-612.006
-613.048
-613.985
-614.829
-615.59
-616.277
-616.897
-617.457
-617.963
-618.421
-618.834
-619.208
-619.546
-619.851
-620.127
-620.377
-620.603
-620.807
-620.991
-621.158
-621.309
-621.446
-621.569
-621.681
-621.781
-621.873
-621.955
-622.029
-622.097
-622.158
-622.213
-622.262
-622.307
-622.348
-622.385
-622.418
-622.448
-622.475
-622.5
-622.522
-622.542
-622.56
-622.576
-622.591
-622.604
-622.617
-622.627
-622.637
-622.646
-622.654
-622.662
-622.668
-622.674
-622.679
-622.684
-622.689
-622.693
-622.696
-622.699
-622.702
-622.705
-622.707
-622.71
-622.712
-622.713
-622.715
-622.716
-622.718
-622.719
-622.72
-622.721
-622.722
-622.722
-622.723
-622.724
-622.724
-622.725
-622.725
-622.726
-622.726
-622.726
-622.727
-622.727
-622.727
-622.728
-622.728
-622.728
-622.728
-622.728
-622.728
-622.728
-622.728
-622.728
-622.729
-622.729
-622.729
112.538
97.9897
69.3198
27.3684
-26.7063
-91.277
-164.61
-244.547
-329.034
-415.715
-502.364
-586.645
-666.354
-739.577
-804.277
-859.002
-902.151
-932.674
-949.507
-955.872
-960.592
-964.401
-967.534
-970.154
-972.378
-974.289
-975.947
-977.399
-978.679
-979.813
-980.824
-981.727
-982.537
-983.265
-983.92
-984.511
-985.043
-985.525
-985.96
-986.353
-986.709
-987.031
-987.322
-987.585
-987.824
-988.04
-988.235
-988.412
-988.571
-988.716
-988.847
-988.966
-989.073
-989.17
-989.257
-989.337
-989.408
-989.473
-989.532
-989.585
-989.633
-989.676
-989.715
-989.751
-989.783
-989.812
-989.838
-989.862
-989.883
-989.902
-989.92
-989.936
-989.95
-989.963
-989.975
-989.985
-989.995
-990.003
-990.011
-990.018
-990.025
-990.03
-990.035
-990.04
-990.044
-990.048
-990.052
-990.055
-990.058
-990.06
-990.063
-990.065
-990.067
-990.068
-990.07
-990.071
-990.072
-990.074
-990.075
-990.076
-990.076
-990.077
-990.078
-990.078
-990.079
-990.079
-990.08
-990.08
-990.081
-990.081
-990.081
-990.082
-990.082
-990.082
-990.082
-990.082
-990.083
-990.083
-990.083
-990.083
-990.083
-990.083
-990.083
-990.083
-990.083
-990.083
-990.083
-990.083
-116.853
-133.47
-166.156
-214.011
-275.612
-349.315
-433.092
-524.567
-621.303
-720.824
-820.541
-918.026
-1010.74
-1096.48
-1173.16
-1238.98
-1292.44
-1332.17
-1357.2
-1366.89
-1369.96
-1372.33
-1374.2
-1375.72
-1376.97
-1378.04
-1378.94
-1379.73
-1380.42
-1381.03
-1381.58
-1382.06
-1382.5
-1382.89
-1383.25
-1383.57
-1383.86
-1384.12
-1384.36
-1384.58
-1384.77
-1384.95
-1385.11
-1385.26
-1385.39
-1385.51
-1385.62
-1385.72
-1385.81
-1385.89
-1385.97
-1386.04
-1386.1
-1386.15
-1386.2
-1386.25
-1386.29
-1386.32
-1386.36
-1386.39
-1386.41
-1386.44
-1386.46
-1386.48
-1386.5
-1386.52
-1386.53
-1386.55
-1386.56
-1386.57
-1386.58
-1386.59
-1386.6
-1386.6
-1386.61
-1386.62
-1386.62
-1386.63
-1386.63
-1386.64
-1386.64
-1386.64
-1386.65
-1386.65
-1386.65
-1386.65
-1386.65
-1386.66
-1386.66
-1386.66
-1386.66
-1386.66
-1386.66
-1386.66
-1386.67
-1386.67
-1386.67
-1386.67
-1386.67
-1386.67
-1386.67
-1386.67
-1386.67
-1386.67
-1386.67
-1386.67
-1386.67
-1386.67
-1386.67
-1386.67
-1386.67
-1386.67
-1386.67
-1386.67
-1386.67
-1386.67
-1386.67
-1386.67
-1386.67
-1386.67
-1386.67
-1386.67
-1386.67
-1386.67
-1386.67
-1386.67
-1386.67
-1386.67
-416.649
-434.812
-470.659
-523.141
-590.754
-671.67
-763.561
-864.032
-970.441
-1079.92
-1189.8
-1297.27
-1399.93
-1495.13
-1580.86
-1654.96
-1716
-1762.35
-1793.08
-1807.4
-1809.06
-1809.71
-1810.13
-1810.41
-1810.61
-1810.74
-1810.84
-1810.92
-1810.99
-1811.04
-1811.09
-1811.14
-1811.18
-1811.22
-1811.26
-1811.3
-1811.33
-1811.37
-1811.4
-1811.43
-1811.46
-1811.49
-1811.52
-1811.54
-1811.56
-1811.59
-1811.61
-1811.62
-1811.64
-1811.66
-1811.67
-1811.68
-1811.7
-1811.71
-1811.72
-1811.73
-1811.74
-1811.74
-1811.75
-1811.76
-1811.76
-1811.77
-1811.77
-1811.78
-1811.78
-1811.78
-1811.79
-1811.79
-1811.79
-1811.8
-1811.8
-1811.8
-1811.8
-1811.8
-1811.81
-1811.81
-1811.81
-1811.81
-1811.81
-1811.81
-1811.81
-1811.81
-1811.81
-1811.81
-1811.81
-1811.81
-1811.82
-1811.82
-1811.82
-1811.82
-1811.82
-1811.82
-1811.82
-1811.82
-1811.82
-1811.82
-1811.82
-1811.82
-1811.82
-1811.82
-1811.82
-1811.82
-1811.82
-1811.82
-1811.82
-1811.82
-1811.82
-1811.82
-1811.82
-1811.82
-1811.82
-1811.82
-1811.82
-1811.82
-1811.82
-1811.82
-1811.82
-1811.82
-1811.82
-1811.82
-1811.82
-1811.82
-1811.82
-1811.82
-1811.82
-1811.82
-1811.82
-1811.82
-807.478
-826.632
-864.442
-919.817
-991.089
-1076.36
-1173.23
-1279.1
-1391.15
-1506.63
-1622.37
-1735.72
-1843.91
-1944.34
-2034.79
-2113.25
-2177.8
-2227.22
-2260.29
-2276.15
-2276.9
-2275.63
-2274.46
-2273.41
-2272.47
-2271.63
-2270.88
-2270.22
-2269.63
-2269.11
-2268.64
-2268.23
-2267.87
-2267.54
-2267.26
-2267
-2266.77
-2266.57
-2266.39
-2266.23
-2266.09
-2265.96
-2265.85
-2265.75
-2265.66
-2265.57
-2265.5
-2265.44
-2265.38
-2265.32
-2265.28
-2265.23
-2265.2
-2265.16
-2265.13
-2265.1
-2265.08
-2265.05
-2265.03
-2265.02
-2265
-2264.98
-2264.97
-2264.96
-2264.95
-2264.94
-2264.93
-2264.92
-2264.91
-2264.91
-2264.9
-2264.9
-2264.89
-2264.89
-2264.88
-2264.88
-2264.88
-2264.87
-2264.87
-2264.87
-2264.87
-2264.87
-2264.86
-2264.86
-2264.86
-2264.86
-2264.86
-2264.86
-2264.86
-2264.86
-2264.85
-2264.85
-2264.85
-2264.85
-2264.85
-2264.85
-2264.85
-2264.85
-2264.85
-2264.85
-2264.85
-2264.85
-2264.85
-2264.85
-2264.85
-2264.85
-2264.85
-2264.85
-2264.85
-2264.85
-2264.85
-2264.85
-2264.85
-2264.85
-2264.85
-2264.85
-2264.85
-2264.85
-2264.85
-2264.85
-2264.85
-2264.85
-2264.85
-2264.85
-2264.85
-2264.85
-2264.85
-2264.85
-1304.36
-1323.74
-1361.99
-1418.01
-1490.08
-1576.27
-1674.12
-1781
-1894.03
-2010.39
-2126.87
-2240.75
-2349.23
-2449.67
-2539.8
-2617.58
-2681.09
-2729.09
-2760.35
-2774.02
-2772.37
-2769.08
-2766.28
-2763.85
-2761.74
-2759.9
-2758.28
-2756.86
-2755.6
-2754.49
-2753.5
-2752.63
-2751.85
-2751.15
-2750.53
-2749.98
-2749.48
-2749.04
-2748.64
-2748.29
-2747.97
-2747.68
-2747.42
-2747.19
-2746.98
-2746.8
-2746.63
-2746.48
-2746.34
-2746.22
-2746.11
-2746.01
-2745.92
-2745.84
-2745.76
-2745.7
-2745.64
-2745.58
-2745.54
-2745.49
-2745.45
-2745.42
-2745.39
-2745.36
-2745.33
-2745.31
-2745.29
-2745.27
-2745.25
-2745.23
-2745.22
-2745.21
-2745.19
-2745.18
-2745.17
-2745.17
-2745.16
-2745.15
-2745.14
-2745.14
-2745.13
-2745.13
-2745.12
-2745.12
-2745.12
-2745.11
-2745.11
-2745.11
-2745.11
-2745.1
-2745.1
-2745.1
-2745.1
-2745.1
-2745.1
-2745.1
-2745.1
-2745.09
-2745.09
-2745.09
-2745.09
-2745.09
-2745.09
-2745.09
-2745.09
-2745.09
-2745.09
-2745.09
-2745.09
-2745.09
-2745.09
-2745.09
-2745.09
-2745.09
-2745.09
-2745.09
-2745.09
-2745.09
-2745.09
-2745.09
-2745.09
-2745.09
-2745.09
-2745.09
-2745.09
-2745.09
-2745.09
-2745.09
-1913.2
-1931.97
-1969
-2023.19
-2092.92
-2176.26
-2270.75
-2373.83
-2482.72
-2594.37
-2705.97
-2814.55
-2917.6
-3012.32
-3096.64
-3168.27
-3225.77
-3267.45
-3292.4
-3299.82
-3294.28
-3289.05
-3284.63
-3280.85
-3277.59
-3274.75
-3272.27
-3270.09
-3268.17
-3266.46
-3264.95
-3263.61
-3262.41
-3261.34
-3260.38
-3259.53
-3258.76
-3258.07
-3257.46
-3256.9
-3256.41
-3255.96
-3255.56
-3255.2
-3254.87
-3254.58
-3254.31
-3254.07
-3253.86
-3253.66
-3253.49
-3253.33
-3253.19
-3253.06
-3252.95
-3252.84
-3252.75
-3252.66
-3252.59
-3252.52
-3252.45
-3252.4
-3252.35
-3252.3
-3252.26
-3252.22
-3252.19
-3252.15
-3252.13
-3252.1
-3252.08
-3252.06
-3252.04
-3252.02
-3252.01
-3251.99
-3251.98
-3251.97
-3251.96
-3251.95
-3251.94
-3251.94
-3251.93
-3251.92
-3251.92
-3251.91
-3251.91
-3251.9
-3251.9
-3251.9
-3251.9
-3251.89
-3251.89
-3251.89
-3251.89
-3251.88
-3251.88
-3251.88
-3251.88
-3251.88
-3251.88
-3251.88
-3251.88
-3251.87
-3251.87
-3251.87
-3251.87
-3251.87
-3251.87
-3251.87
-3251.87
-3251.87
-3251.87
-3251.87
-3251.87
-3251.87
-3251.87
-3251.87
-3251.87
-3251.87
-3251.87
-3251.87
-3251.87
-3251.87
-3251.87
-3251.87
-3251.87
-3251.87
-2629.07
-2646.49
-2680.71
-2730.74
-2795.01
-2871.73
-2958.67
-3053.19
-3152.62
-3254.29
-3355.35
-3453.18
-3544.99
-3628.42
-3701.23
-3761.53
-3807.73
-3838.43
-3852.67
-3849.86
-3841.48
-3834.5
-3828.6
-3823.55
-3819.19
-3815.39
-3812.07
-3809.15
-3806.58
-3804.29
-3802.26
-3800.46
-3798.84
-3797.4
-3796.11
-3794.96
-3793.92
-3792.99
-3792.16
-3791.41
-3790.73
-3790.12
-3789.58
-3789.08
-3788.64
-3788.24
-3787.88
-3787.55
-3787.26
-3786.99
-3786.75
-3786.54
-3786.34
-3786.17
-3786.01
-3785.87
-3785.74
-3785.62
-3785.51
-3785.42
-3785.33
-3785.26
-3785.19
-3785.12
-3785.06
-3785.01
-3784.97
-3784.92
-3784.89
-3784.85
-3784.82
-3784.79
-3784.77
-3784.74
-3784.72
-3784.7
-3784.69
-3784.67
-3784.66
-3784.65
-3784.63
-3784.62
-3784.61
-3784.61
-3784.6
-3784.59
-3784.59
-3784.58
-3784.58
-3784.57
-3784.57
-3784.56
-3784.56
-3784.56
-3784.55
-3784.55
-3784.55
-3784.55
-3784.55
-3784.54
-3784.54
-3784.54
-3784.54
-3784.54
-3784.54
-3784.54
-3784.54
-3784.53
-3784.53
-3784.53
-3784.53
-3784.53
-3784.53
-3784.53
-3784.53
-3784.53
-3784.53
-3784.53
-3784.53
-3784.53
-3784.53
-3784.53
-3784.53
-3784.53
-3784.53
-3784.53
-3784.53
-3784.53
-3436.84
-3452.06
-3482.02
-3525.75
-3581.97
-3648.79
-3724.29
-3805.97
-3891.58
-3978.43
-4064.06
-4145.84
-4221.3
-4288.39
-4344.83
-4389.13
-4419.54
-4435.04
-4434.52
-4423.02
-4412.96
-4404.5
-4397.29
-4391.09
-4385.72
-4381.04
-4376.92
-4373.3
-4370.09
-4367.25
-4364.72
-4362.46
-4360.45
-4358.64
-4357.03
-4355.58
-4354.28
-4353.11
-4352.06
-4351.11
-4350.26
-4349.49
-4348.8
-4348.18
-4347.62
-4347.11
-4346.66
-4346.24
-4345.87
-4345.54
-4345.23
-4344.96
-4344.71
-4344.49
-4344.29
-4344.11
-4343.94
-4343.8
-4343.66
-4343.54
-4343.43
-4343.33
-4343.24
-4343.16
-4343.09
-4343.02
-4342.96
-4342.91
-4342.86
-4342.82
-4342.78
-4342.74
-4342.71
-4342.68
-4342.66
-4342.63
-4342.61
-4342.59
-4342.57
-4342.56
-4342.54
-4342.53
-4342.52
-4342.51
-4342.5
-4342.49
-4342.48
-4342.47
-4342.47
-4342.46
-4342.46
-4342.45
-4342.45
-4342.44
-4342.44
-4342.44
-4342.43
-4342.43
-4342.43
-4342.43
-4342.43
-4342.42
-4342.42
-4342.42
-4342.42
-4342.42
-4342.42
-4342.42
-4342.42
-4342.42
-4342.41
-4342.41
-4342.41
-4342.41
-4342.41
-4342.41
-4342.41
-4342.41
-4342.41
-4342.41
-4342.41
-4342.41
-4342.41
-4342.41
-4342.41
-4342.41
-4342.41
-4342.41
-4312.43
-4324.89
-4349.47
-4385.37
-4431.2
-4485.65
-4546.7
-4612.41
-4680.44
-4748.74
-4814.85
-4876.63
-4931.81
-4978.44
-5014.76
-5039.11
-5050.27
-5047.14
-5032.52
-5019.16
-5007.84
-4998.19
-4989.88
-4982.68
-4976.41
-4970.91
-4966.07
-4961.79
-4957.99
-4954.62
-4951.61
-4948.92
-4946.52
-4944.37
-4942.44
-4940.7
-4939.14
-4937.74
-4936.48
-4935.34
-4934.32
-4933.4
-4932.57
-4931.82
-4931.14
-4930.53
-4929.98
-4929.48
-4929.04
-4928.63
-4928.27
-4927.94
-4927.64
-4927.37
-4927.13
-4926.91
-4926.71
-4926.53
-4926.37
-4926.22
-4926.09
-4925.97
-4925.86
-4925.76
-4925.67
-4925.6
-4925.52
-4925.46
-4925.4
-4925.35
-4925.3
-4925.26
-4925.22
-4925.18
-4925.15
-4925.12
-4925.09
-4925.07
-4925.05
-4925.03
-4925.01
-4925
-4924.98
-4924.97
-4924.96
-4924.95
-4924.94
-4924.93
-4924.92
-4924.92
-4924.91
-4924.9
-4924.9
-4924.89
-4924.89
-4924.89
-4924.88
-4924.88
-4924.88
-4924.87
-4924.87
-4924.87
-4924.87
-4924.87
-4924.86
-4924.86
-4924.86
-4924.86
-4924.86
-4924.86
-4924.86
-4924.86
-4924.86
-4924.86
-4924.86
-4924.85
-4924.85
-4924.85
-4924.85
-4924.85
-4924.85
-4924.85
-4924.85
-4924.85
-4924.85
-4924.85
-4924.85
-4924.85
-5226.09
-5235.53
-5254.09
-5281
-5315.17
-5355.44
-5400.24
-5447.68
-5495.91
-5543.07
-5587.18
-5626.2
-5658.35
-5681.97
-5695.37
-5697.45
-5687.02
-5668.25
-5651.76
-5637.58
-5625.35
-5614.77
-5605.57
-5597.53
-5590.48
-5584.26
-5578.77
-5573.89
-5569.55
-5565.68
-5562.23
-5559.14
-5556.37
-5553.88
-5551.65
-5549.64
-5547.84
-5546.21
-5544.75
-5543.43
-5542.24
-5541.17
-5540.2
-5539.33
-5538.54
-5537.83
-5537.19
-5536.61
-5536.09
-5535.62
-5535.19
-5534.8
-5534.46
-5534.14
-5533.86
-5533.6
-5533.37
-5533.16
-5532.97
-5532.8
-5532.65
-5532.51
-5532.38
-5532.27
-5532.17
-5532.07
-5531.99
-5531.91
-5531.84
-5531.78
-5531.73
-5531.68
-5531.63
-5531.59
-5531.55
-5531.52
-5531.49
-5531.46
-5531.43
-5531.41
-5531.39
-5531.37
-5531.36
-5531.34
-5531.33
-5531.32
-5531.31
-5531.3
-5531.29
-5531.28
-5531.27
-5531.26
-5531.26
-5531.25
-5531.25
-5531.24
-5531.24
-5531.24
-5531.23
-5531.23
-5531.23
-5531.22
-5531.22
-5531.22
-5531.22
-5531.22
-5531.22
-5531.21
-5531.21
-5531.21
-5531.21
-5531.21
-5531.21
-5531.21
-5531.21
-5531.21
-5531.21
-5531.21
-5531.21
-5531.21
-5531.21
-5531.21
-5531.21
-5531.2
-5531.2
-5531.2
-5531.2
-5531.2
-6146.32
-6152.53
-6164.76
-6182.27
-6204.25
-6229.58
-6257.11
-6285.34
-6312.73
-6337.51
-6358.35
-6373.43
-6381.42
-6380.86
-6370.38
-6349.8
-6328.18
-6309.09
-6292.34
-6277.66
-6264.81
-6253.55
-6243.65
-6234.92
-6227.21
-6220.37
-6214.3
-6208.89
-6204.06
-6199.74
-6195.88
-6192.41
-6189.3
-6186.5
-6183.98
-6181.72
-6179.68
-6177.85
-6176.19
-6174.7
-6173.35
-6172.14
-6171.04
-6170.05
-6169.16
-6168.35
-6167.62
-6166.97
-6166.37
-6165.83
-6165.35
-6164.91
-6164.52
-6164.16
-6163.84
-6163.55
-6163.28
-6163.04
-6162.83
-6162.64
-6162.46
-6162.3
-6162.16
-6162.03
-6161.91
-6161.81
-6161.71
-6161.62
-6161.55
-6161.47
-6161.41
-6161.35
-6161.3
-6161.25
-6161.21
-6161.17
-6161.14
-6161.11
-6161.08
-6161.05
-6161.03
-6161.01
-6160.99
-6160.97
-6160.96
-6160.94
-6160.93
-6160.92
-6160.91
-6160.9
-6160.89
-6160.88
-6160.88
-6160.87
-6160.87
-6160.86
-6160.86
-6160.85
-6160.85
-6160.85
-6160.84
-6160.84
-6160.84
-6160.83
-6160.83
-6160.83
-6160.83
-6160.83
-6160.83
-6160.83
-6160.82
-6160.82
-6160.82
-6160.82
-6160.82
-6160.82
-6160.82
-6160.82
-6160.82
-6160.82
-6160.82
-6160.82
-6160.82
-6160.82
-6160.82
-6160.82
-6160.82
-6160.82
-7042.85
-7045.87
-7051.75
-7059.87
-7069.7
-7080.41
-7090.84
-7100.04
-7106.56
-7109.43
-7107.13
-7098.72
-7082.68
-7058.63
-7033.4
-7010.29
-6989.35
-6970.55
-6953.76
-6938.84
-6925.6
-6913.85
-6903.42
-6894.14
-6885.89
-6878.53
-6871.96
-6866.08
-6860.82
-6856.1
-6851.86
-6848.05
-6844.63
-6841.54
-6838.77
-6836.26
-6834.01
-6831.97
-6830.14
-6828.48
-6826.99
-6825.64
-6824.42
-6823.32
-6822.33
-6821.43
-6820.62
-6819.89
-6819.23
-6818.64
-6818.1
-6817.61
-6817.17
-6816.77
-6816.41
-6816.09
-6815.79
-6815.53
-6815.29
-6815.07
-6814.88
-6814.7
-6814.54
-6814.39
-6814.26
-6814.15
-6814.04
-6813.94
-6813.86
-6813.78
-6813.71
-6813.64
-6813.58
-6813.53
-6813.48
-6813.44
-6813.4
-6813.37
-6813.34
-6813.31
-6813.28
-6813.26
-6813.24
-6813.22
-6813.2
-6813.19
-6813.17
-6813.16
-6813.15
-6813.14
-6813.13
-6813.12
-6813.11
-6813.1
-6813.1
-6813.09
-6813.09
-6813.08
-6813.08
-6813.08
-6813.07
-6813.07
-6813.07
-6813.06
-6813.06
-6813.06
-6813.06
-6813.06
-6813.05
-6813.05
-6813.05
-6813.05
-6813.05
-6813.05
-6813.05
-6813.05
-6813.05
-6813.05
-6813.05
-6813.05
-6813.04
-6813.04
-6813.04
-6813.04
-6813.04
-6813.04
-6813.04
-6813.04
-7889.52
-7889.55
-7889.41
-7888.78
-7887.26
-7884.14
-7878.5
-7869.79
-7856.95
-7839.07
-7815.37
-7788.13
-7761.69
-7736.49
-7712.8
-7690.81
-7670.61
-7652.21
-7635.57
-7620.58
-7607.11
-7595.04
-7584.22
-7574.53
-7565.84
-7558.06
-7551.07
-7544.79
-7539.14
-7534.07
-7529.5
-7525.39
-7521.68
-7518.34
-7515.32
-7512.6
-7510.15
-7507.94
-7505.94
-7504.13
-7502.5
-7501.03
-7499.7
-7498.5
-7497.41
-7496.43
-7495.55
-7494.74
-7494.02
-7493.37
-7492.78
-7492.24
-7491.76
-7491.33
-7490.93
-7490.58
-7490.26
-7489.96
-7489.7
-7489.47
-7489.25
-7489.06
-7488.88
-7488.72
-7488.58
-7488.45
-7488.33
-7488.23
-7488.13
-7488.05
-7487.97
-7487.9
-7487.84
-7487.78
-7487.73
-7487.68
-7487.64
-7487.6
-7487.56
-7487.53
-7487.5
-7487.48
-7487.46
-7487.44
-7487.42
-7487.4
-7487.38
-7487.37
-7487.36
-7487.35
-7487.34
-7487.33
-7487.32
-7487.31
-7487.3
-7487.3
-7487.29
-7487.29
-7487.28
-7487.28
-7487.27
-7487.27
-7487.27
-7487.27
-7487.26
-7487.26
-7487.26
-7487.26
-7487.26
-7487.25
-7487.25
-7487.25
-7487.25
-7487.25
-7487.25
-7487.25
-7487.25
-7487.25
-7487.25
-7487.25
-7487.24
-7487.24
-7487.24
-7487.24
-7487.24
-7487.24
-7487.24
-7487.24
-8666.59
-8664.04
-8658.59
-8650.19
-8638.41
-8622.92
-8603.2
-8580.75
-8556.87
-8532.12
-8507.04
-8482.11
-8457.73
-8434.26
-8411.97
-8391.05
-8371.6
-8353.68
-8337.28
-8322.34
-8308.78
-8296.51
-8285.43
-8275.43
-8266.41
-8258.27
-8250.94
-8244.33
-8238.36
-8232.98
-8228.12
-8223.74
-8219.79
-8216.21
-8212.99
-8210.08
-8207.44
-8205.07
-8202.92
-8200.98
-8199.23
-8197.64
-8196.21
-8194.92
-8193.75
-8192.69
-8191.74
-8190.87
-8190.09
-8189.39
-8188.75
-8188.18
-8187.66
-8187.19
-8186.76
-8186.38
-8186.03
-8185.72
-8185.43
-8185.18
-8184.95
-8184.74
-8184.55
-8184.38
-8184.22
-8184.08
-8183.96
-8183.84
-8183.74
-8183.65
-8183.56
-8183.49
-8183.42
-8183.36
-8183.3
-8183.25
-8183.2
-8183.16
-8183.12
-8183.09
-8183.06
-8183.03
-8183.01
-8182.99
-8182.96
-8182.95
-8182.93
-8182.91
-8182.9
-8182.89
-8182.88
-8182.87
-8182.86
-8182.85
-8182.84
-8182.84
-8182.83
-8182.83
-8182.82
-8182.82
-8182.81
-8182.81
-8182.8
-8182.8
-8182.8
-8182.8
-8182.79
-8182.79
-8182.79
-8182.79
-8182.79
-8182.79
-8182.79
-8182.78
-8182.78
-8182.78
-8182.78
-8182.78
-8182.78
-8182.78
-8182.78
-8182.78
-8182.78
-8182.78
-8182.78
-8182.78
-8182.78
-8182.78
-9375.42
-9371.82
-9364.72
-9354.32
-9340.88
-9324.76
-9306.38
-9286.17
-9264.58
-9242.09
-9219.15
-9196.19
-9173.58
-9151.62
-9130.58
-9110.64
-9091.92
-9074.5
-9058.4
-9043.59
-9030.04
-9017.67
-9006.42
-8996.2
-8986.93
-8978.53
-8970.92
-8964.03
-8957.8
-8952.16
-8947.07
-8942.46
-8938.29
-8934.52
-8931.11
-8928.02
-8925.24
-8922.72
-8920.44
-8918.38
-8916.52
-8914.84
-8913.31
-8911.94
-8910.7
-8909.57
-8908.56
-8907.64
-8906.81
-8906.06
-8905.38
-8904.77
-8904.21
-8903.71
-8903.26
-8902.85
-8902.48
-8902.15
-8901.84
-8901.57
-8901.32
-8901.1
-8900.9
-8900.72
-8900.55
-8900.4
-8900.27
-8900.15
-8900.04
-8899.94
-8899.85
-8899.77
-8899.7
-8899.63
-8899.57
-8899.52
-8899.47
-8899.42
-8899.38
-8899.35
-8899.31
-8899.28
-8899.26
-8899.23
-8899.21
-8899.19
-8899.18
-8899.16
-8899.14
-8899.13
-8899.12
-8899.11
-8899.1
-8899.09
-8899.08
-8899.08
-8899.07
-8899.06
-8899.06
-8899.05
-8899.05
-8899.05
-8899.04
-8899.04
-8899.04
-8899.03
-8899.03
-8899.03
-8899.03
-8899.03
-8899.02
-8899.02
-8899.02
-8899.02
-8899.02
-8899.02
-8899.02
-8899.02
-8899.02
-8899.02
-8899.02
-8899.01
-8899.01
-8899.01
-8899.01
-8899.01
-8899.01
-8899.01
-10093.4
-10090.2
-10083.8
-10074.4
-10062.3
-10047.8
-10031.1
-10012.7
-9993.02
-9972.39
-9951.24
-9929.95
-9908.83
-9888.18
-9868.23
-9849.17
-9831.14
-9814.21
-9798.43
-9783.81
-9770.32
-9757.93
-9746.59
-9736.22
-9726.77
-9718.17
-9710.35
-9703.25
-9696.81
-9690.97
-9685.67
-9680.87
-9676.52
-9672.59
-9669.02
-9665.8
-9662.88
-9660.24
-9657.85
-9655.69
-9653.73
-9651.97
-9650.37
-9648.92
-9647.62
-9646.43
-9645.36
-9644.4
-9643.53
-9642.74
-9642.02
-9641.38
-9640.79
-9640.27
-9639.79
-9639.36
-9638.97
-9638.62
-9638.3
-9638.01
-9637.75
-9637.52
-9637.31
-9637.11
-9636.94
-9636.78
-9636.64
-9636.51
-9636.4
-9636.29
-9636.2
-9636.12
-9636.04
-9635.97
-9635.91
-9635.85
-9635.8
-9635.75