/*--------------------------------*- C++ -*----------------------------------*\
| =========                 |                                                 |
| \\      /  F ield         | OpenFOAM: The Open Source CFD Toolbox           |
|  \\    /   O peration     | Version:  v2012                                 |
|   \\  /    A nd           | Website:  www.openfoam.com                      |
|    \\/     M anipulation  |                                                 |
\*---------------------------------------------------------------------------*/
FoamFile
{
    version     2.0;
    format      ascii;
    class       volScalarField;
    location    "0";
    object      ph_rgh;
}
// * * * * * * * * * * * * * * * * * * * * * * * * * * * * * * * * * * * * * //

dimensions      [1 -1 -2 0 0 0 0];


internalField   nonuniform List<scalar> 
4096
(
-7256.61
-7258.33
-7261.74
-7266.74
-7273.23
-7281.06
-7290.05
-7300.02
-7310.75
-7322.06
-7333.73
-7345.57
-7357.4
-7369.08
-7380.46
-7391.44
-7401.92
-7411.85
-7421.19
-7429.91
-7438.01
-7445.5
-7452.39
-7458.72
-7464.5
-7469.77
-7474.57
-7478.94
-7482.9
-7486.49
-7489.75
-7492.69
-7495.36
-7497.76
-7499.94
-7501.91
-7503.69
-7505.3
-7506.75
-7508.06
-7509.24
-7510.31
-7511.28
-7512.15
-7512.94
-7513.65
-7514.29
-7514.87
-7515.4
-7515.87
-7516.3
-7516.68
-7517.03
-7517.35
-7517.63
-7517.89
-7518.12
-7518.33
-7518.52
-7518.7
-7518.85
-7518.99
-7519.12
-7519.23
-7519.33
-7519.43
-7519.51
-7519.59
-7519.66
-7519.72
-7519.78
-7519.83
-7519.87
-7519.91
-7519.95
-7519.99
-7520.02
-7520.04
-7520.07
-7520.09
-7520.11
-7520.13
-7520.15
-7520.16
-7520.18
-7520.19
-7520.2
-7520.21
-7520.22
-7520.23
-7520.23
-7520.24
-7520.25
-7520.25
-7520.26
-7520.26
-7520.27
-7520.27
-7520.27
-7520.28
-7520.28
-7520.28
-7520.28
-7520.28
-7520.29
-7520.29
-7520.29
-7520.29
-7520.29
-7520.29
-7520.29
-7520.29
-7520.3
-7520.3
-7520.3
-7520.3
-7520.3
-7520.3
-7520.3
-7520.3
-7520.3
-7520.3
-7520.3
-7520.3
-7520.3
-7520.3
-7520.3
-7520.3
-7288.67
-7290.43
-7293.92
-7299.04
-7305.67
-7313.67
-7322.86
-7333.02
-7343.97
-7355.47
-7367.33
-7379.35
-7391.34
-7403.15
-7414.64
-7425.7
-7436.24
-7446.21
-7455.57
-7464.29
-7472.38
-7479.85
-7486.72
-7493
-7498.75
-7503.99
-7508.75
-7513.08
-7517.01
-7520.56
-7523.79
-7526.7
-7529.34
-7531.72
-7533.88
-7535.83
-7537.58
-7539.17
-7540.61
-7541.91
-7543.08
-7544.13
-7545.09
-7545.95
-7546.73
-7547.44
-7548.07
-7548.65
-7549.16
-7549.63
-7550.06
-7550.44
-7550.78
-7551.1
-7551.38
-7551.63
-7551.86
-7552.07
-7552.26
-7552.43
-7552.58
-7552.72
-7552.84
-7552.96
-7553.06
-7553.15
-7553.24
-7553.31
-7553.38
-7553.44
-7553.5
-7553.55
-7553.59
-7553.63
-7553.67
-7553.7
-7553.73
-7553.76
-7553.79
-7553.81
-7553.83
-7553.85
-7553.86
-7553.88
-7553.89
-7553.9
-7553.91
-7553.92
-7553.93
-7553.94
-7553.95
-7553.96
-7553.96
-7553.97
-7553.97
-7553.98
-7553.98
-7553.98
-7553.99
-7553.99
-7553.99
-7554
-7554
-7554
-7554
-7554
-7554
-7554.01
-7554.01
-7554.01
-7554.01
-7554.01
-7554.01
-7554.01
-7554.01
-7554.01
-7554.01
-7554.01
-7554.01
-7554.01
-7554.01
-7554.01
-7554.01
-7554.01
-7554.01
-7554.01
-7554.01
-7554.01
-7352.01
-7353.86
-7357.51
-7362.88
-7369.83
-7378.19
-7387.76
-7398.35
-7409.72
-7421.65
-7433.9
-7446.28
-7458.6
-7470.68
-7482.39
-7493.61
-7504.28
-7514.32
-7523.71
-7532.44
-7540.5
-7547.93
-7554.73
-7560.95
-7566.62
-7571.78
-7576.47
-7580.72
-7584.57
-7588.06
-7591.22
-7594.08
-7596.66
-7598.99
-7601.1
-7603.01
-7604.73
-7606.28
-7607.68
-7608.95
-7610.1
-7611.13
-7612.06
-7612.91
-7613.67
-7614.36
-7614.98
-7615.54
-7616.05
-7616.51
-7616.92
-7617.29
-7617.63
-7617.94
-7618.21
-7618.46
-7618.68
-7618.89
-7619.07
-7619.24
-7619.39
-7619.52
-7619.65
-7619.76
-7619.86
-7619.95
-7620.03
-7620.1
-7620.17
-7620.23
-7620.28
-7620.33
-7620.38
-7620.42
-7620.45
-7620.49
-7620.51
-7620.54
-7620.57
-7620.59
-7620.61
-7620.63
-7620.64
-7620.66
-7620.67
-7620.68
-7620.69
-7620.7
-7620.71
-7620.72
-7620.73
-7620.73
-7620.74
-7620.74
-7620.75
-7620.75
-7620.76
-7620.76
-7620.76
-7620.77
-7620.77
-7620.77
-7620.77
-7620.77
-7620.78
-7620.78
-7620.78
-7620.78
-7620.78
-7620.78
-7620.78
-7620.78
-7620.78
-7620.79
-7620.79
-7620.79
-7620.79
-7620.79
-7620.79
-7620.79
-7620.79
-7620.79
-7620.79
-7620.79
-7620.79
-7620.79
-7620.79
-7620.79
-7445.83
-7447.82
-7451.74
-7457.49
-7464.93
-7473.85
-7484.06
-7495.31
-7507.35
-7519.93
-7532.81
-7545.76
-7558.57
-7571.07
-7583.12
-7594.6
-7605.44
-7615.59
-7625.03
-7633.75
-7641.77
-7649.11
-7655.82
-7661.93
-7667.48
-7672.52
-7677.09
-7681.22
-7684.97
-7688.35
-7691.41
-7694.17
-7696.67
-7698.93
-7700.96
-7702.8
-7704.47
-7705.97
-7707.32
-7708.55
-7709.65
-7710.65
-7711.55
-7712.36
-7713.1
-7713.76
-7714.36
-7714.91
-7715.4
-7715.84
-7716.24
-7716.6
-7716.92
-7717.22
-7717.48
-7717.72
-7717.94
-7718.14
-7718.31
-7718.48
-7718.62
-7718.75
-7718.87
-7718.98
-7719.07
-7719.16
-7719.24
-7719.31
-7719.37
-7719.43
-7719.48
-7719.53
-7719.57
-7719.61
-7719.65
-7719.68
-7719.71
-7719.73
-7719.76
-7719.78
-7719.8
-7719.81
-7719.83
-7719.84
-7719.86
-7719.87
-7719.88
-7719.89
-7719.9
-7719.9
-7719.91
-7719.92
-7719.92
-7719.93
-7719.93
-7719.94
-7719.94
-7719.94
-7719.95
-7719.95
-7719.95
-7719.96
-7719.96
-7719.96
-7719.96
-7719.96
-7719.96
-7719.96
-7719.97
-7719.97
-7719.97
-7719.97
-7719.97
-7719.97
-7719.97
-7719.97
-7719.97
-7719.97
-7719.97
-7719.97
-7719.97
-7719.97
-7719.97
-7719.97
-7719.97
-7719.97
-7719.97
-7719.97
-7569.27
-7571.46
-7575.76
-7582.06
-7590.19
-7599.93
-7611.02
-7623.2
-7636.2
-7649.71
-7663.46
-7677.2
-7690.7
-7703.78
-7716.29
-7728.11
-7739.18
-7749.46
-7758.94
-7767.64
-7775.58
-7782.81
-7789.37
-7795.32
-7800.71
-7805.58
-7809.98
-7813.95
-7817.54
-7820.78
-7823.71
-7826.35
-7828.73
-7830.88
-7832.82
-7834.58
-7836.16
-7837.59
-7838.88
-7840.04
-7841.09
-7842.04
-7842.9
-7843.68
-7844.38
-7845.01
-7845.58
-7846.09
-7846.56
-7846.98
-7847.36
-7847.7
-7848.02
-7848.3
-7848.55
-7848.78
-7848.98
-7849.17
-7849.34
-7849.49
-7849.63
-7849.75
-7849.87
-7849.97
-7850.06
-7850.14
-7850.22
-7850.29
-7850.35
-7850.4
-7850.45
-7850.5
-7850.54
-7850.58
-7850.61
-7850.64
-7850.67
-7850.69
-7850.71
-7850.73
-7850.75
-7850.77
-7850.78
-7850.8
-7850.81
-7850.82
-7850.83
-7850.84
-7850.85
-7850.85
-7850.86
-7850.87
-7850.87
-7850.88
-7850.88
-7850.88
-7850.89
-7850.89
-7850.89
-7850.9
-7850.9
-7850.9
-7850.9
-7850.91
-7850.91
-7850.91
-7850.91
-7850.91
-7850.91
-7850.91
-7850.91
-7850.91
-7850.91
-7850.92
-7850.92
-7850.92
-7850.92
-7850.92
-7850.92
-7850.92
-7850.92
-7850.92
-7850.92
-7850.92
-7850.92
-7850.92
-7850.92
-7850.92
-7718.35
-7721.12
-7726.5
-7734.27
-7744.06
-7755.46
-7767.9
-7781.34
-7795.61
-7810.37
-7825.28
-7840.06
-7854.47
-7868.3
-7881.39
-7893.64
-7904.98
-7915.4
-7924.91
-7933.55
-7941.37
-7948.43
-7954.79
-7960.52
-7965.68
-7970.32
-7974.5
-7978.27
-7981.66
-7984.71
-7987.47
-7989.95
-7992.19
-7994.21
-7996.03
-7997.67
-7999.16
-8000.49
-8001.7
-8002.79
-8003.78
-8004.67
-8005.47
-8006.2
-8006.85
-8007.44
-8007.98
-8008.46
-8008.9
-8009.29
-8009.65
-8009.97
-8010.26
-8010.52
-8010.76
-8010.97
-8011.17
-8011.34
-8011.5
-8011.64
-8011.77
-8011.89
-8012
-8012.09
-8012.18
-8012.25
-8012.32
-8012.39
-8012.45
-8012.5
-8012.54
-8012.59
-8012.62
-8012.66
-8012.69
-8012.72
-8012.74
-8012.77
-8012.79
-8012.81
-8012.82
-8012.84
-8012.85
-8012.87
-8012.88
-8012.89
-8012.9
-8012.91
-8012.91
-8012.92
-8012.93
-8012.93
-8012.94
-8012.94
-8012.95
-8012.95
-8012.95
-8012.96
-8012.96
-8012.96
-8012.96
-8012.96
-8012.97
-8012.97
-8012.97
-8012.97
-8012.97
-8012.97
-8012.97
-8012.98
-8012.98
-8012.98
-8012.98
-8012.98
-8012.98
-8012.98
-8012.98
-8012.98
-8012.98
-8012.98
-8012.98
-8012.98
-8012.98
-8012.98
-8012.98
-8012.98
-8012.98
-8012.98
-7869.92
-7873.85
-7881.56
-7892.74
-7906.99
-7923.71
-7942.17
-7961.68
-7981.34
-8000.3
-8017.76
-8033.86
-8049.42
-8064.18
-8077.98
-8090.72
-8102.36
-8112.91
-8122.42
-8130.94
-8138.56
-8145.37
-8151.46
-8156.9
-8161.76
-8166.12
-8170.03
-8173.53
-8176.68
-8179.51
-8182.05
-8184.34
-8186.4
-8188.26
-8189.94
-8191.45
-8192.81
-8194.04
-8195.15
-8196.16
-8197.06
-8197.88
-8198.62
-8199.28
-8199.88
-8200.43
-8200.92
-8201.36
-8201.76
-8202.13
-8202.45
-8202.75
-8203.02
-8203.26
-8203.48
-8203.67
-8203.85
-8204.01
-8204.16
-8204.29
-8204.41
-8204.51
-8204.61
-8204.7
-8204.78
-8204.85
-8204.91
-8204.97
-8205.03
-8205.07
-8205.12
-8205.16
-8205.19
-8205.22
-8205.25
-8205.28
-8205.3
-8205.32
-8205.34
-8205.36
-8205.37
-8205.39
-8205.4
-8205.41
-8205.42
-8205.43
-8205.44
-8205.45
-8205.46
-8205.46
-8205.47
-8205.47
-8205.48
-8205.48
-8205.49
-8205.49
-8205.49
-8205.49
-8205.5
-8205.5
-8205.5
-8205.5
-8205.5
-8205.51
-8205.51
-8205.51
-8205.51
-8205.51
-8205.51
-8205.51
-8205.51
-8205.51
-8205.51
-8205.52
-8205.52
-8205.52
-8205.52
-8205.52
-8205.52
-8205.52
-8205.52
-8205.52
-8205.52
-8205.52
-8205.52
-8205.52
-8205.52
-8205.52
-8015.04
-8020.45
-8031.12
-8046.59
-8066.39
-8089.81
-8115.97
-8143.96
-8172.7
-8201.21
-8228.32
-8253.03
-8274.16
-8291.02
-8305.66
-8318.96
-8330.9
-8341.54
-8350.96
-8359.27
-8366.61
-8373.08
-8378.79
-8383.86
-8388.35
-8392.35
-8395.92
-8399.1
-8401.96
-8404.51
-8406.81
-8408.87
-8410.73
-8412.4
-8413.91
-8415.26
-8416.49
-8417.59
-8418.59
-8419.49
-8420.3
-8421.03
-8421.69
-8422.29
-8422.83
-8423.32
-8423.76
-8424.16
-8424.52
-8424.84
-8425.14
-8425.4
-8425.64
-8425.86
-8426.06
-8426.23
-8426.39
-8426.54
-8426.67
-8426.79
-8426.89
-8426.99
-8427.08
-8427.16
-8427.23
-8427.29
-8427.35
-8427.4
-8427.45
-8427.49
-8427.53
-8427.57
-8427.6
-8427.63
-8427.65
-8427.68
-8427.7
-8427.72
-8427.73
-8427.75
-8427.76
-8427.78
-8427.79
-8427.8
-8427.81
-8427.81
-8427.82
-8427.83
-8427.84
-8427.84
-8427.85
-8427.85
-8427.86
-8427.86
-8427.86
-8427.87
-8427.87
-8427.87
-8427.87
-8427.87
-8427.88
-8427.88
-8427.88
-8427.88
-8427.88
-8427.88
-8427.88
-8427.89
-8427.89
-8427.89
-8427.89
-8427.89
-8427.89
-8427.89
-8427.89
-8427.89
-8427.89
-8427.89
-8427.89
-8427.89
-8427.89
-8427.89
-8427.89
-8427.89
-8427.89
-8427.89
-8427.89
-8427.89
-8152.7
-8159.87
-8174.02
-8194.63
-8221.03
-8252.37
-8287.66
-8325.74
-8365.37
-8405.18
-8443.97
-8480.31
-8513.03
-8540.9
-8562.74
-8578.01
-8590.22
-8600.86
-8610.07
-8618.05
-8624.95
-8630.95
-8636.18
-8640.77
-8644.8
-8648.37
-8651.53
-8654.34
-8656.85
-8659.09
-8661.1
-8662.9
-8664.52
-8665.98
-8667.29
-8668.47
-8669.53
-8670.5
-8671.36
-8672.14
-8672.85
-8673.49
-8674.07
-8674.59
-8675.06
-8675.48
-8675.87
-8676.21
-8676.53
-8676.81
-8677.07
-8677.3
-8677.51
-8677.7
-8677.87
-8678.02
-8678.16
-8678.29
-8678.4
-8678.5
-8678.6
-8678.68
-8678.76
-8678.82
-8678.89
-8678.94
-8678.99
-8679.04
-8679.08
-8679.12
-8679.15
-8679.18
-8679.21
-8679.23
-8679.26
-8679.28
-8679.3
-8679.31
-8679.33
-8679.34
-8679.35
-8679.36
-8679.37
-8679.38
-8679.39
-8679.4
-8679.41
-8679.41
-8679.42
-8679.42
-8679.43
-8679.43
-8679.43
-8679.44
-8679.44
-8679.44
-8679.45
-8679.45
-8679.45
-8679.45
-8679.45
-8679.46
-8679.46
-8679.46
-8679.46
-8679.46
-8679.46
-8679.46
-8679.46
-8679.46
-8679.46
-8679.46
-8679.46
-8679.46
-8679.46
-8679.47
-8679.47
-8679.47
-8679.47
-8679.47
-8679.47
-8679.47
-8679.47
-8679.47
-8679.47
-8679.47
-8679.47
-8679.47
-8287.59
-8296.73
-8314.75
-8341.07
-8374.84
-8415.13
-8460.7
-8510.08
-8561.84
-8614.44
-8666.31
-8715.84
-8761.55
-8802.06
-8835.98
-8862.26
-8879.85
-8890.49
-8899.31
-8906.75
-8913.05
-8918.41
-8923.02
-8927.01
-8930.49
-8933.53
-8936.22
-8938.59
-8940.7
-8942.58
-8944.27
-8945.77
-8947.13
-8948.34
-8949.44
-8950.42
-8951.31
-8952.11
-8952.84
-8953.49
-8954.08
-8954.61
-8955.09
-8955.53
-8955.92
-8956.28
-8956.6
-8956.89
-8957.15
-8957.39
-8957.6
-8957.79
-8957.97
-8958.13
-8958.27
-8958.4
-8958.52
-8958.62
-8958.72
-8958.8
-8958.88
-8958.95
-8959.01
-8959.07
-8959.12
-8959.17
-8959.21
-8959.25
-8959.29
-8959.32
-8959.35
-8959.37
-8959.4
-8959.42
-8959.44
-8959.45
-8959.47
-8959.48
-8959.49
-8959.51
-8959.52
-8959.53
-8959.53
-8959.54
-8959.55
-8959.55
-8959.56
-8959.56
-8959.57
-8959.57
-8959.58
-8959.58
-8959.58
-8959.59
-8959.59
-8959.59
-8959.59
-8959.6
-8959.6
-8959.6
-8959.6
-8959.6
-8959.6
-8959.6
-8959.6
-8959.6
-8959.61
-8959.61
-8959.61
-8959.61
-8959.61
-8959.61
-8959.61
-8959.61
-8959.61
-8959.61
-8959.61
-8959.61
-8959.61
-8959.61
-8959.61
-8959.61
-8959.61
-8959.61
-8959.61
-8959.61
-8959.61
-8959.61
-8430.23
-8441.42
-8463.53
-8495.91
-8537.51
-8587.24
-8643.55
-8704.89
-8769.41
-8835.45
-8901.06
-8964.48
-9023.91
-9077.73
-9124.45
-9162.7
-9191.36
-9209.45
-9218.23
-9224.86
-9230.32
-9234.86
-9238.68
-9241.94
-9244.75
-9247.19
-9249.32
-9251.2
-9252.87
-9254.35
-9255.67
-9256.85
-9257.91
-9258.86
-9259.71
-9260.48
-9261.18
-9261.81
-9262.37
-9262.88
-9263.34
-9263.76
-9264.14
-9264.48
-9264.79
-9265.07
-9265.32
-9265.55
-9265.75
-9265.94
-9266.11
-9266.26
-9266.4
-9266.52
-9266.64
-9266.74
-9266.83
-9266.91
-9266.99
-9267.06
-9267.12
-9267.17
-9267.22
-9267.27
-9267.31
-9267.35
-9267.38
-9267.41
-9267.44
-9267.46
-9267.49
-9267.51
-9267.52
-9267.54
-9267.56
-9267.57
-9267.58
-9267.59
-9267.6
-9267.61
-9267.62
-9267.63
-9267.63
-9267.64
-9267.64
-9267.65
-9267.65
-9267.66
-9267.66
-9267.67
-9267.67
-9267.67
-9267.67
-9267.68
-9267.68
-9267.68
-9267.68
-9267.68
-9267.68
-9267.68
-9267.69
-9267.69
-9267.69
-9267.69
-9267.69
-9267.69
-9267.69
-9267.69
-9267.69
-9267.69
-9267.69
-9267.69
-9267.69
-9267.69
-9267.69
-9267.69
-9267.69
-9267.69
-9267.69
-9267.69
-9267.69
-9267.69
-9267.69
-9267.69
-9267.69
-9267.69
-9267.69
-9267.69
-8596.39
-8609.67
-8635.85
-8674.15
-8723.52
-8782.48
-8849.43
-8922.41
-8999.55
-9078.69
-9157.8
-9234.75
-9307.53
-9374.38
-9433.45
-9483.42
-9522.81
-9550.68
-9566.05
-9571.86
-9576.17
-9579.65
-9582.51
-9584.9
-9586.93
-9588.67
-9590.19
-9591.51
-9592.68
-9593.72
-9594.64
-9595.46
-9596.2
-9596.87
-9597.47
-9598.01
-9598.49
-9598.93
-9599.33
-9599.69
-9600.01
-9600.31
-9600.57
-9600.81
-9601.03
-9601.23
-9601.41
-9601.57
-9601.71
-9601.84
-9601.96
-9602.07
-9602.17
-9602.26
-9602.34
-9602.41
-9602.48
-9602.54
-9602.59
-9602.64
-9602.68
-9602.72
-9602.76
-9602.79
-9602.82
-9602.85
-9602.87
-9602.89
-9602.91
-9602.93
-9602.94
-9602.96
-9602.97
-9602.98
-9602.99
-9603
-9603.01
-9603.02
-9603.03
-9603.03
-9603.04
-9603.04
-9603.05
-9603.05
-9603.06
-9603.06
-9603.06
-9603.07
-9603.07
-9603.07
-9603.07
-9603.08
-9603.08
-9603.08
-9603.08
-9603.08
-9603.08
-9603.08
-9603.08
-9603.09
-9603.09
-9603.09
-9603.09
-9603.09
-9603.09
-9603.09
-9603.09
-9603.09
-9603.09
-9603.09
-9603.09
-9603.09
-9603.09
-9603.09
-9603.09
-9603.09
-9603.09
-9603.09
-9603.09
-9603.09
-9603.09
-9603.09
-9603.09
-9603.09
-9603.09
-9603.09
-9603.09
-9603.09
-8805.83
-8821
-8850.84
-8894.53
-8950.77
-9018.07
-9094.56
-9178.07
-9266.39
-9357.26
-9448.3
-9537.3
-9621.96
-9700.23
-9770.24
-9830.34
-9879.15
-9915.42
-9938.28
-9947.12
-9949.93
-9952.09
-9953.79
-9955.18
-9956.33
-9957.3
-9958.13
-9958.85
-9959.48
-9960.04
-9960.53
-9960.97
-9961.37
-9961.73
-9962.06
-9962.35
-9962.61
-9962.85
-9963.07
-9963.27
-9963.45
-9963.61
-9963.76
-9963.89
-9964.01
-9964.12
-9964.22
-9964.32
-9964.4
-9964.47
-9964.54
-9964.6
-9964.66
-9964.71
-9964.75
-9964.79
-9964.83
-9964.86
-9964.89
-9964.92
-9964.95
-9964.97
-9964.99
-9965.01
-9965.03
-9965.04
-9965.05
-9965.07
-9965.08
-9965.09
-9965.1
-9965.11
-9965.11
-9965.12
-9965.13
-9965.13
-9965.14
-9965.14
-9965.14
-9965.15
-9965.15
-9965.15
-9965.16
-9965.16
-9965.16
-9965.16
-9965.17
-9965.17
-9965.17
-9965.17
-9965.17
-9965.17
-9965.17
-9965.17
-9965.18
-9965.18
-9965.18
-9965.18
-9965.18
-9965.18
-9965.18
-9965.18
-9965.18
-9965.18
-9965.18
-9965.18
-9965.18
-9965.18
-9965.18
-9965.18
-9965.18
-9965.18
-9965.18
-9965.18
-9965.18
-9965.18
-9965.18
-9965.18
-9965.18
-9965.18
-9965.18
-9965.18
-9965.18
-9965.18
-9965.18
-9965.18
-9965.18
-9965.18
-9079.54
-9096.13
-9128.86
-9176.77
-9238.5
-9312.38
-9396.28
-9488.01
-9585.16
-9685.12
-9785.43
-9883.56
-9977.28
-10064.2
-10142.5
-10210.1
-10265.9
-10308.2
-10336.2
-10349.3
-10350.8
-10351.4
-10351.8
-10352.1
-10352.2
-10352.4
-10352.5
-10352.5
-10352.6
-10352.6
-10352.7
-10352.7
-10352.8
-10352.8
-10352.8
-10352.9
-10352.9
-10352.9
-10353
-10353
-10353
-10353
-10353.1
-10353.1
-10353.1
-10353.1
-10353.2
-10353.2
-10353.2
-10353.2
-10353.2
-10353.2
-10353.2
-10353.2
-10353.3
-10353.3
-10353.3
-10353.3
-10353.3
-10353.3
-10353.3
-10353.3
-10353.3
-10353.3
-10353.3
-10353.3
-10353.3
-10353.3
-10353.3
-10353.3
-10353.3
-10353.3
-10353.3
-10353.3
-10353.3
-10353.3
-10353.3
-10353.3
-10353.3
-10353.3
-10353.3
-10353.3
-10353.3
-10353.3
-10353.3
-10353.3
-10353.3
-10353.3
-10353.3
-10353.3
-10353.3
-10353.3
-10353.3
-10353.3
-10353.3
-10353.3
-10353.3
-10353.3
-10353.3
-10353.3
-10353.3
-10353.3
-10353.3
-10353.3
-10353.3
-10353.3
-10353.3
-10353.3
-10353.3
-10353.3
-10353.3
-10353.3
-10353.3
-10353.3
-10353.3
-10353.3
-10353.3
-10353.3
-10353.3
-10353.3
-10353.3
-10353.3
-10353.3
-10353.3
-10353.3
-10353.3
-10353.3
-10353.3
-9436.37
-9453.86
-9488.38
-9538.94
-9604.01
-9681.87
-9770.31
-9866.97
-9969.27
-10074.7
-10180.4
-10283.9
-10382.6
-10474.3
-10556.9
-10628.6
-10687.5
-10732.6
-10762.8
-10777.3
-10778
-10776.8
-10775.7
-10774.8
-10773.9
-10773.2
-10772.5
-10771.9
-10771.3
-10770.9
-10770.4
-10770.1
-10769.7
-10769.4
-10769.2
-10768.9
-10768.7
-10768.5
-10768.4
-10768.2
-10768.1
-10768
-10767.9
-10767.8
-10767.7
-10767.6
-10767.6
-10767.5
-10767.4
-10767.4
-10767.4
-10767.3
-10767.3
-10767.3
-10767.2
-10767.2
-10767.2
-10767.2
-10767.1
-10767.1
-10767.1
-10767.1
-10767.1
-10767.1
-10767.1
-10767
-10767
-10767
-10767
-10767
-10767
-10767
-10767
-10767
-10767
-10767
-10767
-10767
-10767
-10767
-10767
-10767
-10767
-10767
-10767
-10767
-10767
-10767
-10767
-10767
-10767
-10767
-10767
-10767
-10767
-10767
-10767
-10767
-10767
-10767
-10767
-10767
-10767
-10767
-10767
-10767
-10767
-10767
-10767
-10767
-10767
-10767
-10767
-10767
-10767
-10767
-10767
-10767
-10767
-10767
-10767
-10767
-10767
-10767
-10767
-10767
-10767
-10767
-9890.03
-9907.73
-9942.65
-9993.79
-10059.6
-10138.3
-10227.6
-10325.2
-10428.4
-10534.6
-10641
-10745
-10844
-10935.7
-11018
-11089
-11147
-11190.8
-11219.4
-11231.8
-11230.3
-11227.3
-11224.8
-11222.6
-11220.6
-11219
-11217.5
-11216.2
-11215
-11214
-11213.1
-11212.3
-11211.6
-11211
-11210.4
-11209.9
-11209.4
-11209
-11208.7
-11208.3
-11208.1
-11207.8
-11207.6
-11207.3
-11207.2
-11207
-11206.8
-11206.7
-11206.6
-11206.5
-11206.4
-11206.3
-11206.2
-11206.1
-11206
-11206
-11205.9
-11205.9
-11205.8
-11205.8
-11205.8
-11205.7
-11205.7
-11205.7
-11205.6
-11205.6
-11205.6
-11205.6
-11205.6
-11205.6
-11205.5
-11205.5
-11205.5
-11205.5
-11205.5
-11205.5
-11205.5
-11205.5
-11205.5
-11205.5
-11205.5
-11205.5
-11205.5
-11205.5
-11205.5
-11205.5
-11205.4
-11205.4
-11205.4
-11205.4
-11205.4
-11205.4
-11205.4
-11205.4
-11205.4
-11205.4
-11205.4
-11205.4
-11205.4
-11205.4
-11205.4
-11205.4
-11205.4
-11205.4
-11205.4
-11205.4
-11205.4
-11205.4
-11205.4
-11205.4
-11205.4
-11205.4
-11205.4
-11205.4
-11205.4
-11205.4
-11205.4
-11205.4
-11205.4
-11205.4
-11205.4
-11205.4
-11205.4
-11205.4
-11205.4
-11205.4
-11205.4
-11205.4
-10445.9
-10463
-10496.9
-10546.3
-10610
-10686.1
-10772.4
-10866.5
-10965.9
-11067.8
-11169.7
-11268.8
-11362.9
-11449.4
-11526.4
-11591.8
-11644.3
-11682.3
-11705.1
-11711.9
-11706.8
-11702.1
-11698
-11694.6
-11691.6
-11689
-11686.8
-11684.8
-11683
-11681.4
-11680.1
-11678.8
-11677.7
-11676.8
-11675.9
-11675.1
-11674.4
-11673.8
-11673.2
-11672.7
-11672.3
-11671.9
-11671.5
-11671.2
-11670.9
-11670.6
-11670.4
-11670.1
-11669.9
-11669.8
-11669.6
-11669.5
-11669.3
-11669.2
-11669.1
-11669
-11668.9
-11668.8
-11668.8
-11668.7
-11668.7
-11668.6
-11668.6
-11668.5
-11668.5
-11668.4
-11668.4
-11668.4
-11668.4
-11668.3
-11668.3
-11668.3
-11668.3
-11668.3
-11668.3
-11668.2
-11668.2
-11668.2
-11668.2
-11668.2
-11668.2
-11668.2
-11668.2
-11668.2
-11668.2
-11668.2
-11668.2
-11668.2
-11668.2
-11668.1
-11668.1
-11668.1
-11668.1
-11668.1
-11668.1
-11668.1
-11668.1
-11668.1
-11668.1
-11668.1
-11668.1
-11668.1
-11668.1
-11668.1
-11668.1
-11668.1
-11668.1
-11668.1
-11668.1
-11668.1
-11668.1
-11668.1
-11668.1
-11668.1
-11668.1
-11668.1
-11668.1
-11668.1
-11668.1
-11668.1
-11668.1
-11668.1
-11668.1
-11668.1
-11668.1
-11668.1
-11668.1
-11668.1
-11099.5
-11115.4
-11146.6
-11192.3
-11251
-11321.1
-11400.4
-11486.7
-11577.5
-11670.3
-11762.6
-11851.9
-11935.7
-12011.9
-12078.4
-12133.4
-12175.6
-12203.7
-12216.7
-12214.1
-12206.4
-12200.1
-12194.7
-12190.1
-12186.1
-12182.6
-12179.6
-12176.9
-12174.6
-12172.5
-12170.6
-12169
-12167.5
-12166.2
-12165
-12164
-12163
-12162.2
-12161.4
-12160.7
-12160.1
-12159.6
-12159.1
-12158.6
-12158.2
-12157.8
-12157.5
-12157.2
-12156.9
-12156.7
-12156.5
-12156.3
-12156.1
-12155.9
-12155.8
-12155.7
-12155.5
-12155.4
-12155.3
-12155.3
-12155.2
-12155.1
-12155
-12155
-12154.9
-12154.9
-12154.8
-12154.8
-12154.8
-12154.7
-12154.7
-12154.7
-12154.7
-12154.6
-12154.6
-12154.6
-12154.6
-12154.6
-12154.6
-12154.6
-12154.5
-12154.5
-12154.5
-12154.5
-12154.5
-12154.5
-12154.5
-12154.5
-12154.5
-12154.5
-12154.5
-12154.5
-12154.5
-12154.5
-12154.5
-12154.5
-12154.5
-12154.5
-12154.5
-12154.5
-12154.5
-12154.5
-12154.5
-12154.5
-12154.5
-12154.5
-12154.5
-12154.5
-12154.5
-12154.4
-12154.4
-12154.4
-12154.4
-12154.4
-12154.4
-12154.4
-12154.4
-12154.4
-12154.4
-12154.4
-12154.4
-12154.4
-12154.4
-12154.4
-12154.4
-12154.4
-12154.4
-12154.4
-11837
-11850.9
-11878.3
-11918.2
-11969.5
-12030.5
-12099.4
-12174
-12252.2
-12331.5
-12409.7
-12484.3
-12553.2
-12614.5
-12666
-12706.5
-12734.2
-12748.4
-12747.9
-12737.4
-12728.2
-12720.5
-12713.9
-12708.2
-12703.3
-12699.1
-12695.3
-12692
-12689.1
-12686.5
-12684.2
-12682.1
-12680.3
-12678.6
-12677.1
-12675.8
-12674.6
-12673.6
-12672.6
-12671.7
-12671
-12670.3
-12669.6
-12669.1
-12668.6
-12668.1
-12667.7
-12667.3
-12667
-12666.7
-12666.4
-12666.1
-12665.9
-12665.7
-12665.5
-12665.3
-12665.2
-12665.1
-12664.9
-12664.8
-12664.7
-12664.6
-12664.6
-12664.5
-12664.4
-12664.4
-12664.3
-12664.3
-12664.2
-12664.2
-12664.1
-12664.1
-12664.1
-12664
-12664
-12664
-12664
-12664
-12663.9
-12663.9
-12663.9
-12663.9
-12663.9
-12663.9
-12663.9
-12663.9
-12663.9
-12663.9
-12663.8
-12663.8
-12663.8
-12663.8
-12663.8
-12663.8
-12663.8
-12663.8
-12663.8
-12663.8
-12663.8
-12663.8
-12663.8
-12663.8
-12663.8
-12663.8
-12663.8
-12663.8
-12663.8
-12663.8
-12663.8
-12663.8
-12663.8
-12663.8
-12663.8
-12663.8
-12663.8
-12663.8
-12663.8
-12663.8
-12663.8
-12663.8
-12663.8
-12663.8
-12663.8
-12663.8
-12663.8
-12663.8
-12663.8
-12663.8
-12636.4
-12647.8
-12670.2
-12703
-12744.9
-12794.6
-12850.3
-12910.3
-12972.4
-13034.8
-13095.1
-13151.5
-13201.9
-13244.5
-13277.7
-13299.9
-13310.1
-13307.2
-13293.9
-13281.7
-13271.3
-13262.5
-13254.9
-13248.4
-13242.6
-13237.6
-13233.2
-13229.3
-13225.8
-13222.7
-13220
-13217.5
-13215.4
-13213.4
-13211.6
-13210
-13208.6
-13207.3
-13206.2
-13205.2
-13204.2
-13203.4
-13202.6
-13201.9
-13201.3
-13200.8
-13200.3
-13199.8
-13199.4
-13199
-13198.7
-13198.4
-13198.1
-13197.9
-13197.6
-13197.4
-13197.3
-13197.1
-13197
-13196.8
-13196.7
-13196.6
-13196.5
-13196.4
-13196.3
-13196.2
-13196.2
-13196.1
-13196.1
-13196
-13196
-13195.9
-13195.9
-13195.9
-13195.8
-13195.8
-13195.8
-13195.8
-13195.8
-13195.7
-13195.7
-13195.7
-13195.7
-13195.7
-13195.7
-13195.7
-13195.6
-13195.6
-13195.6
-13195.6
-13195.6
-13195.6
-13195.6
-13195.6
-13195.6
-13195.6
-13195.6
-13195.6
-13195.6
-13195.6
-13195.6
-13195.6
-13195.6
-13195.6
-13195.6
-13195.6
-13195.6
-13195.6
-13195.6
-13195.6
-13195.6
-13195.6
-13195.6
-13195.6
-13195.6
-13195.6
-13195.6
-13195.6
-13195.6
-13195.6
-13195.6
-13195.6
-13195.6
-13195.6
-13195.6
-13195.6
-13195.6
-13195.6
-13470.6
-13479.2
-13496.2
-13520.7
-13551.9
-13588.7
-13629.6
-13672.9
-13717
-13760
-13800.3
-13835.9
-13865.3
-13886.8
-13899.1
-13901
-13891.4
-13874.3
-13859.2
-13846.3
-13835.1
-13825.5
-13817.1
-13809.7
-13803.3
-13797.6
-13792.6
-13788.1
-13784.2
-13780.7
-13777.5
-13774.7
-13772.1
-13769.9
-13767.8
-13766
-13764.4
-13762.9
-13761.5
-13760.3
-13759.3
-13758.3
-13757.4
-13756.6
-13755.9
-13755.2
-13754.6
-13754.1
-13753.6
-13753.2
-13752.8
-13752.5
-13752.1
-13751.9
-13751.6
-13751.4
-13751.2
-13751
-13750.8
-13750.6
-13750.5
-13750.4
-13750.3
-13750.1
-13750.1
-13750
-13749.9
-13749.8
-13749.8
-13749.7
-13749.7
-13749.6
-13749.6
-13749.5
-13749.5
-13749.5
-13749.4
-13749.4
-13749.4
-13749.4
-13749.3
-13749.3
-13749.3
-13749.3
-13749.3
-13749.3
-13749.3
-13749.3
-13749.3
-13749.2
-13749.2
-13749.2
-13749.2
-13749.2
-13749.2
-13749.2
-13749.2
-13749.2
-13749.2
-13749.2
-13749.2
-13749.2
-13749.2
-13749.2
-13749.2
-13749.2
-13749.2
-13749.2
-13749.2
-13749.2
-13749.2
-13749.2
-13749.2
-13749.2
-13749.2
-13749.2
-13749.2
-13749.2
-13749.2
-13749.2
-13749.2
-13749.2
-13749.2
-13749.2
-13749.2
-13749.2
-13749.2
-13749.2
-14310.8
-14316.4
-14327.6
-14343.6
-14363.7
-14386.8
-14411.9
-14437.7
-14462.7
-14485.3
-14504.4
-14518.1
-14525.4
-14524.9
-14515.4
-14496.6
-14476.8
-14459.4
-14444.1
-14430.7
-14419
-14408.7
-14399.6
-14391.7
-14384.6
-14378.4
-14372.8
-14367.9
-14363.5
-14359.6
-14356
-14352.9
-14350
-14347.5
-14345.2
-14343.1
-14341.2
-14339.6
-14338.1
-14336.7
-14335.5
-14334.4
-14333.4
-14332.4
-14331.6
-14330.9
-14330.2
-14329.6
-14329.1
-14328.6
-14328.2
-14327.8
-14327.4
-14327.1
-14326.8
-14326.5
-14326.3
-14326.1
-14325.9
-14325.7
-14325.5
-14325.4
-14325.2
-14325.1
-14325
-14324.9
-14324.8
-14324.8
-14324.7
-14324.6
-14324.6
-14324.5
-14324.5
-14324.4
-14324.4
-14324.3
-14324.3
-14324.3
-14324.3
-14324.2
-14324.2
-14324.2
-14324.2
-14324.2
-14324.1
-14324.1
-14324.1
-14324.1
-14324.1
-14324.1
-14324.1
-14324.1
-14324.1
-14324.1
-14324.1
-14324.1
-14324.1
-14324
-14324
-14324
-14324
-14324
-14324
-14324
-14324
-14324
-14324
-14324
-14324
-14324
-14324
-14324
-14324
-14324
-14324
-14324
-14324
-14324
-14324
-14324
-14324
-14324
-14324
-14324
-14324
-14324
-14324
-14324
-15129.3
-15132.1
-15137.4
-15144.9
-15153.8
-15163.6
-15173.1
-15181.5
-15187.5
-15190.1
-15188
-15180.3
-15165.7
-15143.7
-15120.7
-15099.6
-15080.5
-15063.3
-15048
-15034.4
-15022.3
-15011.5
-15002
-14993.6
-14986
-14979.3
-14973.3
-14967.9
-14963.1
-14958.8
-14954.9
-14951.5
-14948.3
-14945.5
-14943
-14940.7
-14938.6
-14936.8
-14935.1
-14933.6
-14932.2
-14931
-14929.9
-14928.9
-14928
-14927.2
-14926.4
-14925.8
-14925.2
-14924.6
-14924.1
-14923.7
-14923.3
-14922.9
-14922.6
-14922.3
-14922
-14921.8
-14921.6
-14921.4
-14921.2
-14921
-14920.9
-14920.7
-14920.6
-14920.5
-14920.4
-14920.3
-14920.2
-14920.2
-14920.1
-14920.1
-14920
-14920
-14919.9
-14919.9
-14919.8
-14919.8
-14919.8
-14919.7
-14919.7
-14919.7
-14919.7
-14919.7
-14919.6
-14919.6
-14919.6
-14919.6
-14919.6
-14919.6
-14919.6
-14919.6
-14919.6
-14919.6
-14919.6
-14919.6
-14919.5
-14919.5
-14919.5
-14919.5
-14919.5
-14919.5
-14919.5
-14919.5
-14919.5
-14919.5
-14919.5
-14919.5
-14919.5
-14919.5
-14919.5
-14919.5
-14919.5
-14919.5
-14919.5
-14919.5
-14919.5
-14919.5
-14919.5
-14919.5
-14919.5
-14919.5
-14919.5
-14919.5
-14919.5
-14919.5
-14919.5
-14919.5
-15902.3
-15902.4
-15902.2
-15901.7
-15900.3
-15897.4
-15892.3
-15884.3
-15872.6
-15856.3
-15834.6
-15809.8
-15785.6
-15762.6
-15741
-15720.9
-15702.5
-15685.7
-15670.5
-15656.8
-15644.5
-15633.5
-15623.6
-15614.8
-15606.8
-15599.7
-15593.3
-15587.6
-15582.4
-15577.8
-15573.6
-15569.9
-15566.5
-15563.4
-15560.7
-15558.2
-15556
-15553.9
-15552.1
-15550.5
-15549
-15547.6
-15546.4
-15545.3
-15544.3
-15543.4
-15542.6
-15541.9
-15541.2
-15540.6
-15540.1
-15539.6
-15539.2
-15538.8
-15538.4
-15538.1
-15537.8
-15537.5
-15537.3
-15537.1
-15536.9
-15536.7
-15536.6
-15536.4
-15536.3
-15536.2
-15536.1
-15536
-15535.9
-15535.8
-15535.7
-15535.7
-15535.6
-15535.5
-15535.5
-15535.5
-15535.4
-15535.4
-15535.3
-15535.3
-15535.3
-15535.3
-15535.3
-15535.2
-15535.2
-15535.2
-15535.2
-15535.2
-15535.2
-15535.1
-15535.1
-15535.1
-15535.1
-15535.1
-15535.1
-15535.1
-15535.1
-15535.1
-15535.1
-15535.1
-15535.1
-15535.1
-15535.1
-15535.1
-15535.1
-15535.1
-15535.1
-15535.1
-15535.1
-15535.1
-15535.1
-15535.1
-15535.1
-15535.1
-15535.1
-15535.1
-15535.1
-15535.1
-15535.1
-15535.1
-15535.1
-15535.1
-15535.1
-15535.1
-15535.1
-15535.1
-15535.1
-15535.1
-16611.8
-16609.5
-16604.5
-16596.8
-16586.1
-16571.9
-16553.9
-16533.4
-16511.6
-16489
-16466.1
-16443.4
-16421.1
-16399.7
-16379.3
-16360.2
-16342.5
-16326.1
-16311.1
-16297.5
-16285.1
-16273.9
-16263.8
-16254.7
-16246.4
-16239
-16232.3
-16226.3
-16220.8
-16215.9
-16211.5
-16207.5
-16203.9
-16200.6
-16197.7
-16195
-16192.6
-16190.4
-16188.5
-16186.7
-16185.1
-16183.7
-16182.3
-16181.2
-16180.1
-16179.1
-16178.3
-16177.5
-16176.8
-16176.1
-16175.5
-16175
-16174.5
-16174.1
-16173.7
-16173.4
-16173.1
-16172.8
-16172.5
-16172.3
-16172.1
-16171.9
-16171.7
-16171.5
-16171.4
-16171.3
-16171.2
-16171.1
-16171
-16170.9
-16170.8
-16170.7
-16170.7
-16170.6
-16170.6
-16170.5
-16170.5
-16170.4
-16170.4
-16170.4
-16170.3
-16170.3
-16170.3
-16170.3
-16170.3
-16170.2
-16170.2
-16170.2
-16170.2
-16170.2
-16170.2
-16170.2
-16170.2
-16170.2
-16170.1
-16170.1
-16170.1
-16170.1
-16170.1
-16170.1
-16170.1
-16170.1
-16170.1
-16170.1
-16170.1
-16170.1
-16170.1
-16170.1
-16170.1
-16170.1
-16170.1
-16170.1
-16170.1
-16170.1
-16170.1
-16170.1
-16170.1
-16170.1
-16170.1
-16170.1
-16170.1
-16170.1
-16170.1
-16170.1
-16170.1
-16170.1
-16170.1
-16170.1
-17259
-17255.7
-17249.2
-17239.7
-17227.4
-17212.7
-17195.9
-17177.5
-17157.8
-17137.2
-17116.3
-17095.3
-17074.7
-17054.7
-17035.4
-17017.2
-17000.1
-16984.2
-16969.5
-16956
-16943.6
-16932.4
-16922.1
-16912.7
-16904.3
-16896.6
-16889.7
-16883.4
-16877.7
-16872.5
-16867.9
-16863.7
-16859.9
-16856.4
-16853.3
-16850.5
-16848
-16845.7
-16843.6
-16841.7
-16840
-16838.5
-16837.1
-16835.8
-16834.7
-16833.7
-16832.7
-16831.9
-16831.1
-16830.4
-16829.8
-16829.3
-16828.8
-16828.3
-16827.9
-16827.5
-16827.2
-16826.9
-16826.6
-16826.3
-16826.1
-16825.9
-16825.7
-16825.6
-16825.4
-16825.3
-16825.2
-16825.1
-16825
-16824.9
-16824.8
-16824.7
-16824.6
-16824.6
-16824.5
-16824.5
-16824.4
-16824.4
-16824.4
-16824.3
-16824.3
-16824.3
-16824.2
-16824.2
-16824.2
-16824.2
-16824.2
-16824.1
-16824.1
-16824.1
-16824.1
-16824.1
-16824.1
-16824.1
-16824.1
-16824.1